/*--------------------------------*- C++ -*----------------------------------*\
| =========                 |                                                 |
| \\      /  F ield         | OpenFOAM: The Open Source CFD Toolbox           |
|  \\    /   O peration     | Version:  2306                                  |
|   \\  /    A nd           | Website:  www.openfoam.com                      |
|    \\/     M anipulation  |                                                 |
\*---------------------------------------------------------------------------*/
FoamFile
{
    version     2.0;
    format      ascii;
    arch        "LSB;label=32;scalar=64";
    class       volScalarField;
    location    "2.08459e-06";
    object      alphat;
}
// * * * * * * * * * * * * * * * * * * * * * * * * * * * * * * * * * * * * * //

dimensions      [1 -1 -1 0 0 0 0];

internalField   nonuniform List<scalar> 
49294
(
7.77216e-06
1.0351e-05
2.20482e-08
1.83283e-08
1.08685e-07
9.964e-08
1.79018e-05
3.51894e-08
6.50364e-08
1.1274e-08
2.03577e-08
1.20923e-07
1.22888e-08
1.13278e-07
1.40011e-07
6.87568e-08
2.91696e-08
1.36149e-08
1.85541e-07
2.17451e-08
7.3508e-08
1.28596e-07
8.85169e-08
2.22956e-07
1.09097e-07
1.21555e-07
6.15066e-08
1.66761e-08
2.76806e-07
7.93821e-08
1.40118e-07
1.39314e-07
5.95315e-08
1.29258e-07
4.46452e-08
1.37811e-07
5.72966e-08
8.64957e-09
1.34728e-07
2.53248e-08
2.49866e-07
1.55813e-07
7.15146e-08
6.90567e-07
1.43037e-07
1.3793e-07
2.80056e-08
1.05823e-07
6.91154e-08
9.04802e-07
1.90585e-08
6.13297e-08
2.07831e-07
8.80159e-07
1.38255e-06
2.1116e-08
1.39615e-07
0.000342875
7.30404e-06
0.000333518
2.45274e-07
1.11034e-05
1.40684e-07
1.84278e-08
2.03492e-08
1.12628e-07
1.59554e-07
1.06791e-07
2.75624e-08
7.26655e-07
1.79729e-07
1.83587e-05
4.34941e-08
1.26359e-07
1.62021e-07
1.83379e-07
1.78128e-08
1.38452e-07
1.02028e-07
2.86623e-07
1.18813e-07
1.78957e-07
4.11073e-08
1.64658e-08
7.37797e-08
1.30884e-07
1.19278e-07
3.2355e-08
4.09263e-07
1.32741e-07
2.74936e-07
1.20073e-06
3.61447e-08
2.22799e-08
5.48927e-07
3.45981e-07
1.78252e-07
1.51862e-07
2.74275e-06
1.95477e-07
6.0583e-08
7.11253e-08
3.84805e-08
1.09229e-07
3.84246e-06
9.61029e-08
1.32412e-07
5.54379e-07
1.09869e-06
1.63347e-07
2.70062e-07
2.91336e-08
1.47188e-07
2.05071e-07
1.35107e-07
1.76153e-07
1.38107e-07
3.26972e-07
1.53474e-07
1.89337e-05
2.41948e-07
2.36359e-07
2.49486e-08
1.66558e-08
2.03211e-07
2.33941e-08
2.58814e-08
2.30133e-07
1.07613e-07
9.62686e-08
5.44042e-07
1.80389e-07
8.4718e-08
2.35237e-07
3.08037e-08
1.63204e-05
3.29938e-06
1.44332e-07
1.91032e-07
1.35935e-07
1.87063e-05
1.81731e-07
4.04669e-05
1.42751e-07
1.09769e-05
7.13585e-08
9.55007e-07
1.1027e-07
1.49859e-07
1.49192e-07
1.51569e-07
1.82743e-06
1.4819e-07
1.36273e-07
4.68237e-08
2.79407e-06
2.9475e-06
3.08975e-06
5.29382e-06
3.8051e-06
3.2022e-05
3.06286e-06
3.92649e-06
1.16099e-05
2.64376e-08
1.87476e-05
1.25788e-05
4.91785e-06
5.0282e-06
0.000145295
0.000370151
0.00189732
0.000253132
1.75727e-05
9.32003e-05
8.26031e-06
1.85139e-07
6.37779e-05
8.21957e-05
2.75987e-06
0.000608519
0.00012416
2.65102e-06
0.000224418
2.65157e-05
5.44003e-06
3.64987e-08
1.03597e-05
4.50931e-05
9.15828e-06
1.09588e-05
0.00011633
8.92222e-05
2.1037e-05
2.42773e-05
1.02322e-05
0.000120732
0.000104435
7.56668e-06
9.60291e-06
3.5343e-05
0.000308115
5.28735e-06
5.3125e-05
0.000444089
6.61538e-06
7.65092e-06
2.37721e-06
2.2449e-08
0.00014985
3.97707e-07
5.03154e-08
1.63168e-07
4.54922e-05
0.000661552
1.9364e-07
7.31123e-05
9.23173e-06
5.16939e-05
7.61935e-06
0.000309763
1.76164e-05
3.08657e-05
0.000285284
5.34705e-06
0.000105847
3.27463e-05
5.58202e-06
1.24974e-05
6.77864e-05
4.30011e-06
0.00145523
3.85438e-06
3.17353e-06
3.23839e-06
1.31533e-05
3.79147e-06
4.53955e-06
8.00817e-06
6.65649e-06
4.35576e-05
0.000413331
3.13792e-06
2.33886e-05
4.16893e-06
3.12165e-06
1.15121e-05
0.000268837
2.85191e-06
4.24725e-05
0.00018558
9.05455e-05
8.57085e-05
0.000298636
7.32792e-05
4.73046e-05
0.000323851
1.16267e-05
6.92186e-05
0.00251347
0.000669654
0.00244216
3.0347e-05
5.42421e-06
1.48074e-05
7.43548e-06
0.000256396
7.00508e-06
4.61589e-06
7.55407e-05
1.58919e-05
0.000428419
7.11907e-05
1.51939e-05
6.89901e-05
8.3647e-06
9.82437e-06
9.45066e-06
3.87043e-05
0.000559878
1.75893e-05
0.000933209
0.000185233
1.00037e-05
6.98035e-08
1.27296e-05
9.08969e-06
8.76277e-05
2.88269e-06
6.32904e-05
4.94643e-06
5.36405e-06
0.000421912
5.53612e-05
3.76219e-05
1.07555e-05
4.31304e-05
9.19918e-06
0.000163525
1.92067e-05
2.05345e-05
0.000331283
1.8088e-05
0.000153897
0.000960918
2.00658e-05
2.4282e-05
2.43501e-05
1.79404e-05
0.000158212
0.000275505
2.08253e-05
0.000769469
5.61763e-07
1.90003e-05
1.14108e-05
1.46338e-05
1.1615e-05
7.24588e-06
0.00117798
5.41622e-06
0.000282792
1.49402e-05
2.67668e-05
0.000278337
0.000174087
1.57188e-05
5.30117e-05
0.000304777
2.00457e-05
0.000381192
0.000223564
1.83706e-05
3.00368e-07
9.63912e-06
0.000229236
0.000647524
1.20373e-05
2.15053e-05
0.000207086
4.91085e-05
5.55414e-05
1.39809e-05
2.06177e-05
0.000553576
2.35118e-05
0.00296175
1.14721e-05
0.000849441
0.000100005
0.000748843
6.78206e-06
1.65416e-05
0.000730855
5.77234e-05
0.000250699
0.000118811
1.42009e-05
0.000146832
0.00019481
0.000333387
1.37874e-05
8.34245e-06
0.000862911
0.000284756
2.11029e-05
1.53888e-05
1.23935e-05
1.90693e-05
2.06187e-05
7.25739e-05
2.50605e-05
0.000211391
2.18969e-05
0.000124746
0.000180954
1.40632e-05
8.3705e-06
6.43659e-07
1.88375e-05
3.47192e-05
8.13073e-05
0.000768004
6.64203e-06
9.28864e-05
7.1695e-07
0.000647126
1.56818e-05
0.000106097
1.60153e-05
1.72671e-05
1.54349e-05
4.8081e-05
6.16619e-05
6.9344e-05
3.01503e-05
1.41515e-05
1.26742e-05
2.53731e-05
1.85193e-05
9.19074e-05
6.40601e-05
1.23376e-05
1.78914e-05
0.000284358
1.36142e-05
1.52548e-05
0.000336782
1.61963e-05
1.6206e-05
0.000556087
0.000378117
1.70954e-05
8.19219e-06
6.62577e-05
2.54915e-05
3.94113e-05
2.10302e-05
0.000791061
2.0808e-05
7.78506e-06
0.000227171
3.13593e-05
0.000957342
0.000477569
1.96501e-05
0.000579908
5.53812e-07
0.000126361
7.79283e-06
1.87235e-05
0.00010592
2.52568e-05
2.59295e-05
2.0873e-05
1.97341e-05
0.000111313
6.00828e-05
0.000294927
0.000104065
1.88552e-05
2.51975e-05
1.74787e-05
0.000280091
8.07373e-05
1.34351e-05
2.44368e-05
5.19612e-06
9.70311e-06
1.72391e-05
0.000531604
6.08597e-05
1.40113e-05
0.000245192
9.69618e-06
0.000190321
3.82885e-05
1.46356e-05
2.45068e-05
1.77848e-05
0.0010276
2.07688e-05
2.11129e-05
1.54485e-05
0.000324213
0.00011532
2.62604e-05
0.000447541
1.51978e-05
0.000300315
0.000424179
1.67962e-05
0.000225387
2.4033e-05
0.00104593
0.00100521
1.77845e-05
0.000380876
0.000156995
0.000224967
8.48275e-06
0.000344433
4.38071e-06
1.31546e-05
0.00394184
8.5257e-06
6.11512e-05
2.25567e-05
2.14686e-05
9.85081e-08
1.13843e-05
0.00120219
4.97906e-05
5.54231e-05
0.00038006
0.00078005
8.62225e-05
0.00302701
0.000307541
7.9561e-06
0.000236996
8.75113e-05
0.000261327
1.84296e-05
4.37998e-05
1.41146e-05
0.000204937
6.87484e-05
1.16676e-05
0.000103965
7.20469e-06
0.000406782
1.1825e-05
6.71548e-06
1.51465e-05
1.36008e-05
8.78164e-06
4.65231e-05
1.04035e-05
3.88255e-06
0.000278699
5.17815e-05
1.28143e-05
0.000497377
5.89278e-06
0.000117815
6.71546e-05
9.0884e-05
6.55695e-06
4.7154e-05
1.20656e-05
3.86378e-06
0.000421964
0.000549962
8.51328e-06
0.000100954
5.19361e-05
1.62572e-05
0.000568348
2.48343e-05
2.64688e-05
0.000242757
0.000608043
4.51718e-07
0.000130712
7.55168e-05
6.54967e-05
2.10329e-05
4.17092e-06
0.00019204
1.97427e-05
0.000708187
3.59552e-05
6.33834e-05
0.00026811
0.000890398
4.87554e-06
1.19303e-05
0.000152515
0.00022001
9.72689e-05
7.59428e-06
9.90951e-06
6.03849e-07
0.000615018
3.2463e-05
5.07435e-07
1.89989e-05
1.50545e-05
4.2402e-06
0.000290341
1.57754e-05
1.92806e-05
9.13077e-06
0.000304904
0.000211176
1.30902e-05
1.22017e-06
9.26612e-06
0.000743257
1.29081e-05
1.55629e-05
0.000146635
7.52278e-06
2.64825e-05
4.37721e-07
1.06029e-05
0.000104869
9.90282e-06
4.46808e-06
1.42508e-05
4.60235e-06
1.42878e-05
2.9243e-06
6.11539e-06
1.42207e-05
4.37534e-06
1.30852e-05
7.16822e-05
6.17503e-06
6.12124e-05
6.34071e-06
2.94158e-06
1.55656e-05
1.16317e-05
0.000472366
8.69395e-05
0.000517692
1.14236e-05
0.000143468
7.12986e-06
4.61454e-07
0.000134551
0.000112823
6.1038e-06
9.33744e-06
6.659e-05
1.14858e-05
0.000775403
3.25785e-07
6.85087e-05
3.59596e-06
0.0032882
0.000427441
4.01542e-06
1.63286e-05
3.55613e-06
5.82311e-06
8.02321e-06
3.11118e-05
6.96469e-06
8.65429e-06
8.7912e-06
2.85853e-06
3.33366e-06
4.7579e-06
6.91286e-05
0.000186499
0.000408697
3.904e-05
0.000115071
3.86122e-05
5.88573e-06
0.000243382
0.00019019
5.3773e-05
0.000407849
5.033e-06
3.12011e-06
3.21033e-05
0.000138795
4.97953e-06
0.000254472
2.93204e-06
4.77519e-05
4.64372e-05
5.46794e-06
0.000638516
2.9753e-06
9.40486e-06
0.00204377
0.000266605
8.44802e-06
3.14432e-06
0.00024006
0.000678192
0.000269862
1.24737e-05
3.72609e-06
3.22924e-06
4.97237e-06
1.2967e-05
8.42285e-05
1.61645e-05
1.00753e-05
1.21186e-05
0.000135143
0.000430662
9.24536e-06
5.56182e-06
4.24846e-05
4.18154e-06
5.93727e-06
1.03915e-05
5.93522e-06
4.0131e-06
4.69369e-06
2.30598e-06
0.000161597
4.69277e-06
3.03844e-05
7.19955e-05
8.10073e-05
1.2638e-05
3.17903e-06
0.000225136
1.37134e-05
3.23521e-08
4.55342e-06
3.15863e-05
7.11262e-06
0.00113126
7.63554e-05
5.65012e-05
1.68674e-05
7.29446e-05
6.39091e-05
1.51323e-05
0.000548887
0.000323674
0.000106813
2.10127e-05
1.61268e-05
8.42752e-05
0.000531516
1.79995e-05
1.43451e-05
1.72433e-05
1.47766e-05
1.78377e-05
0.000364809
2.06026e-05
0.000828499
1.85274e-05
1.94509e-05
2.65468e-05
7.09242e-06
1.39765e-05
2.31049e-05
1.64057e-05
9.8233e-06
0.000582496
1.19937e-05
9.12734e-05
1.36188e-05
1.52582e-05
0.00022682
0.000182022
2.05104e-05
0.000477436
0.000158404
0.00036589
4.37208e-06
3.61346e-06
2.21434e-06
3.07875e-06
2.65163e-06
2.16753e-07
1.10935e-05
6.98618e-05
0.000105659
3.41185e-06
1.6631e-05
1.298e-05
2.40965e-05
3.9967e-06
6.42587e-06
1.39791e-07
9.02117e-06
0.000882763
3.79883e-05
0.000135719
0.000191615
7.91251e-06
2.0369e-05
8.00933e-06
2.69008e-05
6.44701e-06
7.72025e-06
9.13095e-06
0.000800641
6.23101e-06
2.15228e-05
0.000747504
0.00087875
1.88151e-05
3.07291e-05
0.000224488
1.05539e-05
1.14614e-05
2.82003e-05
4.78494e-06
1.92529e-05
1.02649e-05
3.33794e-06
4.23158e-05
5.36658e-06
0.000807544
2.73511e-05
5.48912e-06
7.17456e-06
5.32251e-06
1.20959e-05
5.81333e-06
7.93507e-06
5.12753e-06
7.66911e-06
4.25037e-05
1.83598e-07
1.47657e-05
9.50536e-06
0.00024159
7.87636e-06
6.72993e-06
0.000379375
5.02513e-06
3.53469e-06
8.89716e-06
4.30168e-06
0.000186153
6.59542e-05
4.56986e-06
8.72908e-06
3.25894e-05
7.9774e-06
0.000842821
2.1533e-05
0.000330553
9.79834e-06
7.63712e-06
4.9865e-05
4.22358e-07
2.78711e-05
6.86604e-06
5.63507e-05
5.15575e-06
9.00437e-06
0.0004926
7.33256e-06
2.42863e-05
7.96892e-06
1.7814e-05
1.25801e-05
5.8337e-06
7.59163e-06
9.39238e-06
4.13933e-06
1.15142e-07
5.37635e-06
3.94399e-05
8.1613e-06
2.67514e-05
1.15577e-05
9.70117e-06
5.58637e-06
2.38417e-06
0.000153203
8.81036e-06
0.000187331
9.77708e-06
3.77096e-07
4.52194e-06
2.6472e-05
1.3076e-05
5.46135e-06
0.00045844
7.57556e-05
9.59892e-06
2.09555e-05
6.44855e-06
0.000193359
8.76734e-06
2.1743e-05
7.9184e-06
9.67629e-06
2.5127e-05
2.14677e-06
2.05648e-05
4.67515e-06
1.62933e-05
1.00515e-05
9.0818e-06
1.34136e-05
6.74643e-05
7.31018e-06
2.01155e-05
6.40544e-05
2.34965e-05
5.97862e-05
2.28102e-06
0.00102077
0.000230528
2.65604e-05
8.17973e-06
8.00355e-06
1.89493e-05
1.05775e-05
2.05664e-05
5.68045e-06
0.000598436
1.89884e-05
8.58727e-05
0.000910817
5.30178e-06
7.07696e-06
3.90851e-06
2.88518e-05
4.21064e-05
1.92289e-05
2.69741e-05
2.17015e-05
0.000459612
9.25778e-06
0.000202645
5.9433e-06
2.87276e-05
0.00100014
8.03129e-06
2.48783e-05
5.04878e-06
8.7498e-05
2.37175e-05
0.000124693
0.000231258
7.62004e-06
3.23009e-05
3.86945e-05
2.37327e-05
0.000260627
0.000781363
1.66022e-05
0.000565366
7.25812e-06
1.83724e-05
0.00056477
0.000722735
0.00013941
0.000620513
1.94737e-05
2.5129e-06
1.94484e-05
8.55345e-05
7.17591e-06
0.000131666
2.26522e-05
2.21148e-06
2.01534e-05
0.000756696
1.93351e-05
0.000413557
0.000327125
0.000236722
0.000309526
9.95276e-05
0.000743379
1.63386e-05
9.1665e-05
2.38127e-05
2.4201e-05
1.71159e-05
7.00624e-06
0.000720907
0.000529093
1.79379e-06
0.000200571
2.73932e-06
8.13659e-05
1.45102e-05
1.87986e-05
1.94768e-05
2.35552e-05
8.44182e-06
8.72736e-06
2.01409e-05
1.70342e-05
8.42459e-06
2.27335e-05
4.3318e-05
0.000310448
1.24236e-05
3.33446e-05
8.91539e-06
2.07332e-05
6.59377e-05
3.65844e-05
0.000520551
6.02792e-06
7.59925e-07
0.000352771
2.91992e-05
9.12502e-07
7.93677e-06
2.47044e-06
2.62512e-05
0.000401018
5.6352e-05
2.20484e-05
0.000199607
0.000474033
9.17284e-06
1.08596e-05
4.05285e-05
6.35837e-05
0.000115934
5.93486e-05
9.00927e-06
2.00644e-05
1.05599e-05
9.5724e-05
1.3165e-05
0.000778546
0.000183345
0.000242188
1.49785e-05
1.39617e-05
1.09329e-05
1.91352e-05
2.57425e-06
2.40157e-05
1.03144e-05
7.06204e-06
8.15618e-06
1.37096e-05
4.10011e-05
6.21846e-06
9.46385e-05
2.68291e-08
2.33096e-07
8.63748e-08
2.93751e-08
2.53953e-06
2.22832e-08
1.30431e-06
2.47144e-08
1.21442e-07
1.96579e-08
2.18549e-06
5.25602e-08
3.66993e-05
7.47003e-08
3.63534e-08
1.33057e-07
2.14125e-07
4.52352e-08
2.31261e-08
1.94059e-06
1.03958e-07
3.64021e-07
3.17445e-05
1.27249e-05
4.01551e-08
0.000198369
2.53563e-07
0.000445289
3.23966e-06
1.01995e-05
7.07489e-07
2.27902e-07
4.26687e-08
2.6546e-08
1.68027e-08
9.19696e-05
1.68722e-07
1.2903e-07
1.53552e-07
5.86218e-08
2.36972e-08
5.13131e-07
1.18781e-06
2.93946e-08
2.41707e-07
4.41149e-05
1.10679e-07
5.92189e-07
6.13878e-08
6.10874e-07
1.23174e-07
4.86355e-06
6.35486e-07
2.80708e-06
7.49799e-08
2.57701e-07
9.95512e-07
2.07729e-05
9.36053e-09
2.92523e-06
5.17302e-06
1.96314e-07
7.5186e-07
1.14997e-06
1.01486e-06
2.88187e-08
2.40839e-07
3.23655e-07
1.4233e-07
2.6259e-06
4.32175e-07
2.93776e-07
1.07018e-07
2.31136e-08
2.13304e-07
4.43249e-07
2.81546e-07
2.21146e-07
3.31257e-07
1.52173e-07
5.39104e-08
1.22215e-07
1.83825e-07
1.04632e-06
3.41181e-08
9.077e-08
2.73769e-07
4.16707e-07
3.96387e-06
6.34305e-08
4.43767e-08
4.26672e-07
2.47087e-07
9.11108e-08
6.27927e-07
2.03864e-08
7.84516e-08
2.01069e-07
2.67763e-08
2.32766e-07
2.2194e-05
1.10346e-05
3.45184e-08
1.85482e-05
5.29189e-08
4.26754e-07
5.25452e-08
5.93024e-09
6.71483e-06
1.26003e-05
1.42283e-07
4.45358e-08
2.02019e-07
2.71309e-07
0.000428284
0.000483867
3.73894e-06
1.93428e-07
3.27598e-08
8.45407e-07
0.00100903
5.17846e-06
8.74747e-06
1.01956e-05
4.07212e-06
0.000117326
1.00606e-05
4.73086e-05
5.01521e-06
4.44463e-06
3.6576e-06
8.66904e-06
1.30781e-06
6.98322e-06
1.97815e-06
3.96886e-06
7.6364e-06
1.10617e-07
3.56299e-06
5.0367e-06
3.2869e-06
3.06566e-08
4.51406e-08
3.39624e-06
7.59968e-05
6.98023e-06
6.77534e-06
1.41049e-05
8.93897e-05
9.41342e-08
4.33444e-06
1.03775e-07
7.67792e-06
4.21174e-06
7.45669e-06
0.000109347
2.30485e-06
1.11753e-05
1.63785e-05
7.00571e-05
0.000167119
5.94631e-06
5.76352e-06
2.86973e-05
5.10643e-06
1.70561e-07
5.64584e-06
6.38899e-06
3.19031e-05
1.75963e-05
7.1296e-06
1.02419e-05
0.000844543
5.50541e-08
7.10366e-06
5.16796e-06
5.75938e-06
0.000122914
2.10591e-06
4.04607e-06
8.26413e-08
5.71782e-06
2.85232e-07
1.65899e-05
4.50814e-07
4.34368e-06
1.68704e-07
2.50462e-07
6.79377e-07
8.67911e-06
4.5108e-07
9.14685e-06
2.11358e-08
5.5857e-08
3.33592e-08
2.24096e-06
9.76903e-08
1.55733e-05
1.58816e-07
6.40591e-06
8.50883e-07
2.5447e-07
1.36169e-07
2.08357e-08
2.33781e-07
1.41306e-07
5.78186e-05
9.22971e-06
3.06123e-06
7.4038e-06
9.40012e-08
9.4053e-06
2.2745e-08
8.34657e-07
1.24472e-05
5.48071e-07
5.94651e-06
5.68448e-06
7.6945e-06
1.90413e-05
6.70358e-05
7.80144e-07
3.28385e-05
8.27702e-06
6.12434e-06
6.41283e-05
2.10358e-07
6.8779e-06
2.05724e-08
1.77351e-08
7.03817e-06
5.96604e-07
5.42562e-06
3.60875e-07
6.10969e-08
0.000141506
9.99376e-08
4.15133e-06
1.76992e-07
2.20819e-07
2.32053e-05
7.38909e-08
1.69553e-07
1.51465e-07
4.74731e-06
1.81837e-07
5.91174e-06
2.14527e-07
6.57581e-06
2.03131e-06
2.55272e-05
0.00045566
1.77858e-06
5.09424e-06
1.99996e-07
3.587e-06
9.21545e-06
6.70068e-06
6.30737e-06
4.56794e-06
3.07286e-05
4.76089e-07
6.45327e-05
3.40019e-07
1.83632e-07
6.01868e-06
7.73849e-06
7.41127e-08
6.22324e-06
6.42465e-06
5.7386e-06
2.00456e-06
5.50478e-05
2.20247e-05
8.72026e-05
3.6359e-06
4.52217e-06
2.12668e-08
9.95115e-05
5.98237e-06
1.11463e-05
6.89302e-06
5.12007e-06
5.73975e-08
2.15895e-06
0.000143139
1.12015e-07
1.88683e-07
1.03851e-05
6.77923e-06
1.75118e-05
5.62574e-06
7.36634e-06
5.19443e-06
7.01509e-06
3.35248e-07
2.18501e-05
5.90977e-06
2.5675e-05
5.51686e-06
9.28445e-05
1.53808e-07
2.25487e-05
9.68191e-06
4.51083e-05
8.92659e-08
8.9197e-06
7.52962e-06
3.73173e-06
0.000186517
1.03727e-05
3.40394e-05
3.23203e-05
1.01654e-05
3.15748e-08
6.59398e-06
0.000195824
5.54503e-06
1.48319e-05
6.71093e-06
0.000497047
1.11311e-05
4.10778e-05
3.25516e-06
6.54687e-06
5.49213e-06
0.00012583
8.45819e-06
2.25266e-05
7.08298e-06
5.71033e-05
0.000720981
0.000194578
8.38864e-06
3.81742e-06
9.58202e-06
3.96083e-05
0.000953004
5.09105e-06
5.58839e-06
8.2359e-06
4.48995e-06
9.09089e-06
0.000453396
8.03947e-05
5.53105e-06
1.61354e-05
0.00035925
2.47522e-05
7.83899e-06
6.48728e-06
0.000185709
1.17091e-05
9.98266e-05
2.65336e-08
1.57538e-05
3.81039e-05
6.12554e-06
3.34598e-08
4.18488e-05
5.06795e-06
1.49186e-07
4.49411e-06
4.0545e-06
1.97086e-08
0.000180501
9.46769e-06
9.51554e-05
5.22396e-06
2.3079e-05
2.79639e-07
4.29327e-06
5.32636e-06
6.73358e-06
8.59736e-06
0.000935493
8.08797e-06
3.12661e-06
2.15605e-05
3.09017e-05
3.55816e-05
2.95353e-06
5.34671e-05
0.000108711
5.55803e-05
0.000100383
0.000291879
3.781e-06
4.26788e-06
1.45775e-05
0.000154352
8.62581e-08
1.23261e-07
2.44226e-05
1.53301e-05
6.98217e-06
4.73749e-05
2.45344e-08
6.54752e-06
1.22415e-05
3.22478e-08
6.64062e-08
6.59664e-06
8.24485e-06
2.32191e-07
5.42365e-05
4.95596e-05
7.25011e-06
2.41903e-05
3.09642e-08
6.62658e-06
0.000146818
7.13366e-06
5.40695e-05
1.7905e-07
0.000720069
1.27197e-05
8.79862e-05
1.44777e-05
2.15897e-05
6.92706e-06
1.90994e-06
1.1082e-05
3.74591e-05
5.81005e-06
0.000378166
1.72139e-05
8.77494e-06
6.57199e-05
3.15872e-05
1.16405e-05
6.53687e-06
3.51264e-06
6.19629e-06
1.94509e-07
4.18823e-06
2.43479e-08
5.51985e-05
0.000154001
4.91009e-06
5.80716e-06
3.05315e-06
3.17019e-07
1.73648e-07
7.23708e-06
6.44973e-08
3.31021e-08
3.38049e-05
3.27542e-05
3.27419e-05
1.54915e-05
4.01911e-06
7.05545e-05
3.08931e-05
1.9196e-07
4.35791e-06
1.67685e-07
3.57522e-07
3.07156e-06
6.06071e-07
6.97708e-07
9.47388e-07
0.000332523
1.37423e-05
6.05552e-06
6.08843e-07
8.79921e-08
3.42877e-07
5.32763e-06
1.22091e-07
1.20274e-07
1.3036e-07
1.2751e-07
5.36764e-06
4.21533e-06
2.37378e-07
1.74313e-07
5.30811e-06
8.04715e-08
2.8676e-07
1.71583e-07
1.99742e-08
6.08667e-06
1.43325e-07
3.41114e-05
1.34632e-07
5.46769e-05
1.3372e-08
2.82696e-06
9.1455e-08
1.57713e-08
1.56178e-07
4.41913e-07
3.05704e-05
2.30516e-07
3.52939e-05
0.000106554
1.55333e-06
0.00010032
6.00212e-05
6.55523e-06
7.90793e-06
3.74153e-06
6.05849e-05
5.10806e-06
3.4394e-06
2.3117e-05
6.48584e-05
7.6375e-08
0.000494721
3.96174e-07
6.11617e-06
8.32561e-06
2.53799e-08
6.21299e-06
1.22921e-07
4.23327e-06
5.37247e-06
6.88047e-06
1.47306e-05
2.21257e-05
5.77958e-06
1.4577e-05
5.15881e-08
2.53505e-05
4.58265e-07
5.055e-07
6.43977e-05
9.27909e-06
1.69516e-07
5.52836e-07
3.64331e-08
0.000721473
8.14548e-06
1.78738e-05
1.12402e-05
1.95101e-06
1.00914e-05
1.19233e-05
1.95732e-08
1.46198e-07
1.09615e-07
1.11934e-05
4.51861e-06
1.62826e-07
7.82179e-06
8.89728e-07
8.28249e-06
3.61751e-06
6.48866e-06
4.75352e-06
4.71527e-06
3.05306e-05
8.57783e-06
7.74883e-06
9.74542e-08
1.03643e-05
4.77498e-07
4.89729e-08
4.93042e-08
7.99707e-08
3.272e-07
1.35585e-07
1.67477e-07
1.56415e-05
1.7547e-08
2.91773e-07
3.32026e-07
6.96095e-08
4.00662e-06
1.39419e-07
1.61821e-07
8.63887e-06
3.9359e-08
5.58424e-06
5.40812e-06
1.46708e-05
7.65194e-06
9.56028e-06
4.00901e-06
7.00906e-06
1.10492e-07
4.33319e-07
3.91986e-07
6.04099e-05
6.1453e-06
1.17651e-07
8.71867e-05
1.51002e-07
2.12468e-07
3.72219e-06
6.3325e-08
3.31906e-07
1.60865e-05
1.97412e-08
6.01589e-06
2.60241e-05
4.54043e-06
8.49059e-08
5.40257e-06
3.92318e-08
5.78982e-07
7.09955e-06
9.4472e-07
4.85691e-06
3.30632e-05
0.000350688
3.13529e-07
1.39327e-06
9.68814e-07
1.84003e-07
1.58551e-07
1.12354e-07
1.64578e-07
2.59078e-08
7.64762e-07
1.89645e-05
2.52596e-08
2.33263e-08
1.70795e-07
7.51452e-05
7.17726e-06
1.14037e-06
2.13598e-05
0.00266041
8.13258e-06
1.12199e-05
5.89825e-05
5.44295e-07
0.000100863
4.50498e-06
3.98057e-07
8.14779e-08
0.000645611
5.60386e-06
1.00061e-07
5.70478e-06
6.35831e-08
5.18443e-06
1.14978e-06
5.59279e-05
1.3454e-06
7.11434e-08
6.75151e-08
1.9671e-08
1.13928e-05
7.98767e-06
4.56655e-05
2.22924e-07
0.000532372
3.24997e-05
3.5125e-07
1.53253e-06
6.54587e-06
6.28501e-06
3.78579e-06
4.4366e-07
1.53046e-05
1.38473e-05
9.05614e-07
2.13199e-07
1.26101e-07
2.19864e-06
9.13657e-07
8.19925e-07
2.72128e-07
3.88416e-07
1.53953e-07
4.533e-08
1.43035e-06
4.61195e-07
2.28716e-08
9.08381e-06
1.86219e-05
3.01034e-06
1.67462e-06
2.65873e-06
4.72153e-06
2.00766e-07
3.46939e-07
6.98171e-06
1.41825e-07
5.6279e-05
5.34953e-06
3.85401e-07
9.23148e-07
3.56309e-08
2.2826e-08
6.4101e-08
5.31386e-07
1.99563e-05
2.66948e-08
1.09874e-05
1.74288e-08
4.40025e-07
2.65554e-07
4.59879e-07
4.19342e-05
3.31103e-08
4.99043e-06
2.92526e-08
1.55527e-07
1.90782e-06
1.61586e-07
2.15908e-07
1.02578e-05
1.16092e-07
6.47513e-07
3.66892e-05
5.15966e-05
1.33976e-07
1.09081e-05
2.03254e-06
1.66796e-07
1.68796e-07
2.1236e-08
0.000190979
1.16675e-06
8.24585e-05
4.8088e-07
1.21241e-05
2.41512e-08
8.80121e-08
1.71651e-08
1.7743e-08
1.51835e-07
7.07262e-05
3.75438e-07
1.89444e-07
2.61645e-07
1.77081e-08
4.29393e-08
4.40881e-07
1.53964e-07
8.76239e-08
9.1313e-06
5.73996e-05
2.86045e-07
2.93415e-06
1.1579e-05
2.72776e-07
2.26853e-05
8.05696e-06
7.80988e-07
3.04164e-07
1.91188e-08
7.8706e-08
9.25733e-08
2.58509e-07
2.8724e-08
2.21503e-08
2.8399e-08
2.47166e-06
0.00077787
1.93532e-07
3.90194e-05
2.10009e-07
2.93742e-05
1.79508e-08
1.03575e-07
8.22914e-08
2.40797e-07
2.18541e-08
8.81904e-05
2.91336e-08
2.1326e-07
1.8503e-07
5.84721e-06
7.39787e-08
2.255e-05
1.97065e-05
1.64264e-07
1.89287e-08
3.25215e-08
2.37706e-05
7.17927e-08
4.37582e-08
1.19005e-07
3.9205e-06
8.61411e-07
5.55657e-06
9.48388e-08
1.00277e-07
7.95699e-08
2.88995e-08
1.43871e-08
4.81286e-07
1.80709e-07
1.42826e-06
2.19371e-08
1.24144e-07
2.62345e-08
3.65899e-08
3.52883e-08
1.72934e-07
2.54447e-08
1.6539e-07
4.2706e-07
1.37028e-07
2.77359e-07
2.34104e-08
1.57109e-07
3.16604e-08
5.78284e-08
0.000274594
1.92402e-07
1.08519e-07
0.000274123
1.00066e-07
1.56287e-07
2.20832e-08
1.69541e-07
2.59608e-07
8.54136e-08
1.48011e-07
1.51538e-07
1.35357e-07
0.00189779
2.36663e-08
1.31377e-07
3.83995e-05
6.00936e-08
1.07388e-07
1.60116e-05
1.97304e-05
2.61099e-07
0.000395395
9.57774e-08
1.80654e-08
0.000184001
1.52217e-07
2.03642e-05
1.0249e-05
2.84585e-05
2.19241e-07
3.15325e-08
1.11476e-07
1.31419e-07
2.80565e-05
1.87965e-07
1.11451e-07
1.61906e-05
0.000305332
5.36143e-06
0.000901954
1.24312e-07
1.56722e-07
1.41209e-08
1.83009e-08
1.66274e-07
1.69819e-07
8.99447e-07
1.36594e-07
2.17285e-05
1.30849e-07
6.3067e-08
1.87679e-05
8.58471e-08
1.4932e-07
1.51817e-07
1.54251e-07
1.58499e-07
2.18443e-07
1.50753e-07
1.07404e-07
1.6338e-07
1.47111e-07
7.33043e-06
2.15057e-08
1.31561e-07
1.79034e-08
2.20614e-07
3.20119e-08
2.3805e-07
8.01344e-08
1.42066e-07
1.41508e-07
1.87235e-07
1.37881e-07
4.47266e-08
1.73168e-07
1.45761e-07
1.87025e-07
2.06832e-08
7.29843e-08
3.20453e-08
1.70006e-07
7.36495e-08
7.1287e-08
7.76355e-08
1.35932e-07
0.00010379
1.39105e-07
7.90255e-08
1.46556e-07
1.26675e-07
1.50488e-07
1.4016e-07
2.58771e-08
2.81981e-08
1.50079e-07
9.25287e-08
1.176e-07
7.17079e-08
9.21028e-08
2.2328e-07
2.1002e-08
1.47851e-07
8.589e-07
1.27262e-07
1.59041e-07
5.60542e-07
2.98067e-07
5.58143e-08
1.84038e-08
8.15349e-08
3.07757e-08
1.85462e-07
1.17156e-08
3.16227e-08
1.41634e-08
5.76113e-06
6.77871e-09
7.95206e-08
3.25267e-08
1.32981e-07
1.31317e-07
1.47385e-07
2.58768e-08
1.39763e-07
1.54244e-07
1.72835e-07
7.02242e-08
5.14523e-08
4.62101e-08
5.17474e-08
1.25447e-07
4.45617e-08
7.50709e-08
3.0248e-08
7.05701e-06
5.38299e-08
3.91293e-08
3.76764e-08
1.38344e-07
1.38927e-07
1.31546e-07
1.4104e-07
3.08046e-07
2.15167e-08
6.71879e-06
1.42634e-07
1.57674e-07
3.71747e-06
1.15503e-07
2.37757e-07
7.1474e-08
3.08104e-08
4.02823e-07
1.26861e-07
2.93576e-08
1.27846e-07
1.71773e-08
8.90851e-08
1.51301e-07
1.77534e-08
7.4303e-08
1.21811e-07
5.73885e-08
1.25138e-07
7.41604e-08
2.31321e-08
3.44645e-08
1.95627e-08
1.5426e-07
1.65186e-07
1.30434e-07
1.42077e-07
2.4447e-08
9.72593e-08
1.18712e-07
1.28903e-07
1.33583e-07
3.64265e-08
2.94613e-08
1.55247e-07
1.30328e-07
1.8689e-08
9.81966e-08
3.72367e-08
1.93661e-08
3.15604e-08
1.75339e-08
1.05451e-07
1.84498e-07
1.25012e-07
5.99536e-08
2.59355e-08
6.8996e-08
7.97409e-08
8.11254e-08
1.14259e-07
3.45669e-08
9.65176e-08
1.17833e-07
1.83089e-08
8.6679e-08
1.59041e-08
1.13017e-07
1.11095e-07
8.4892e-08
7.50599e-08
9.36706e-08
2.63534e-08
2.48475e-07
4.7045e-08
5.72233e-08
2.7043e-08
1.08667e-07
1.36165e-07
9.89383e-08
8.87047e-08
1.75197e-08
6.97981e-08
2.1648e-07
4.39969e-07
9.0481e-08
7.89236e-09
1.96755e-07
1.07806e-07
1.21691e-07
9.50832e-08
2.28079e-08
1.06461e-07
9.40106e-09
8.65234e-07
1.29262e-07
6.46405e-08
1.439e-08
1.18333e-07
7.59144e-08
4.27297e-08
7.7913e-08
3.99636e-08
7.23433e-08
2.57636e-08
1.82395e-07
7.78094e-08
7.16969e-08
5.47332e-08
3.10249e-07
4.01796e-08
1.11369e-07
3.00708e-07
1.24231e-07
1.15665e-07
1.34798e-06
1.59214e-08
4.15642e-07
1.19449e-07
1.3508e-07
9.58819e-08
3.65048e-07
1.31088e-07
3.60993e-08
4.7548e-08
7.55438e-08
6.49165e-08
1.37486e-08
5.77298e-08
2.66896e-07
1.5856e-07
1.04859e-07
1.17554e-07
2.0858e-07
6.21702e-08
1.53936e-07
8.77267e-08
1.51461e-07
1.15464e-07
5.48413e-08
3.58024e-07
8.65386e-06
2.40854e-07
2.65971e-08
7.06677e-05
1.68296e-08
6.62625e-08
8.76917e-06
4.44575e-05
2.43492e-07
5.02898e-06
1.42927e-07
1.19731e-07
2.26204e-06
1.54065e-07
1.23379e-07
3.24616e-07
3.55402e-08
8.37547e-08
2.85303e-08
7.36669e-08
1.75909e-08
9.90956e-08
4.77816e-07
6.08665e-07
4.53585e-08
2.6738e-07
2.96997e-08
2.32866e-08
4.61107e-05
1.48611e-07
1.03771e-07
1.82554e-07
1.86926e-08
6.36645e-08
5.88309e-08
1.10082e-07
1.52533e-07
4.831e-05
5.82879e-08
1.85827e-07
4.74285e-06
3.99934e-07
8.11218e-05
1.02763e-07
3.08823e-08
0.000256429
2.61221e-05
4.58317e-08
1.5545e-08
1.04872e-07
6.15157e-07
2.1836e-07
2.85843e-08
2.06035e-08
3.57677e-08
1.26911e-07
2.73496e-08
4.88941e-07
1.66043e-06
1.31004e-07
2.51135e-05
1.32996e-07
7.81393e-08
2.51842e-08
2.80293e-07
6.00414e-08
2.20434e-07
3.19409e-08
2.48158e-07
2.24391e-07
2.21155e-07
4.9266e-08
6.08387e-07
8.4314e-08
4.48015e-08
2.0411e-08
0.000559891
1.954e-05
0.000787705
6.40805e-06
3.85043e-08
5.10626e-05
1.29519e-05
0.00081113
1.79732e-05
1.8781e-05
3.40848e-05
1.74112e-07
1.28594e-07
6.03386e-08
1.37813e-08
3.08036e-08
3.6133e-08
4.78188e-08
1.31124e-07
1.20169e-07
6.49259e-08
4.07312e-08
2.77313e-08
7.17801e-09
3.61447e-07
0.000199906
0.00058417
0.000550814
1.44104e-05
0.000324859
7.90667e-06
2.24264e-05
9.39637e-06
0.000521026
7.91722e-09
1.53524e-08
1.50013e-08
1.07046e-07
1.22461e-08
2.6755e-08
3.09083e-08
9.56021e-07
3.63275e-07
2.44642e-08
8.51779e-06
0.00057134
6.57561e-06
1.3309e-05
2.28729e-05
0.000508331
4.45511e-06
4.88429e-06
1.24557e-07
0.000136888
0.000121741
6.06273e-05
1.46036e-05
9.12888e-05
9.59245e-05
1.21143e-05
1.75797e-08
8.15428e-07
3.13938e-08
3.43669e-08
8.50236e-08
9.9941e-08
5.67238e-08
1.61055e-07
3.23642e-08
2.01793e-05
4.24057e-06
7.9135e-08
0.000139275
8.27874e-06
2.06551e-05
3.24534e-05
0.000117395
8.01734e-06
0.000627104
8.09903e-06
5.16235e-06
1.21008e-05
4.99583e-06
0.00017734
3.83194e-06
4.026e-05
1.8587e-07
4.36688e-06
3.5198e-06
1.99947e-05
6.44551e-09
5.56199e-08
7.06855e-06
7.17275e-06
0.000114428
1.119e-05
6.25203e-06
2.9792e-06
5.01642e-06
5.14969e-06
6.64975e-06
1.59113e-08
2.10064e-07
3.83628e-08
5.60757e-05
0.000190133
1.59235e-05
1.80696e-05
0.000256864
5.16507e-06
8.92931e-06
0.000849749
5.10825e-06
1.11184e-05
1.86037e-05
3.59248e-08
0.000222879
1.0205e-05
3.27453e-05
3.23208e-05
0.000538772
4.60966e-06
2.216e-05
7.44313e-07
1.22921e-07
7.18376e-05
2.06146e-05
0.000177921
1.42331e-05
1.9861e-05
3.85298e-08
1.69868e-06
1.27497e-07
3.36717e-07
1.61722e-08
1.59693e-08
1.76508e-08
1.33917e-07
1.676e-08
8.20707e-08
2.95016e-06
9.60399e-08
1.54332e-07
1.26635e-06
7.1079e-06
3.63517e-06
2.87253e-07
7.35941e-08
1.10164e-07
7.87157e-06
1.60015e-05
1.48457e-05
6.94434e-09
1.5473e-08
3.01309e-08
1.40082e-08
1.7543e-05
0.000185852
0.000861214
1.27877e-05
0.000372247
7.80242e-06
8.53056e-06
2.07551e-08
2.92098e-06
1.35127e-05
0.000278822
1.5364e-05
7.26111e-05
1.19317e-05
1.73544e-05
8.59534e-05
6.00905e-08
1.94985e-05
1.45005e-07
1.2988e-07
1.13519e-07
3.9712e-08
2.74842e-05
7.01756e-06
7.09287e-08
1.56156e-07
1.33064e-05
0.000216343
6.73914e-08
3.64681e-08
5.80035e-08
1.56116e-07
6.1129e-08
2.29265e-08
2.38393e-06
2.0773e-08
1.23365e-07
1.19413e-07
7.36223e-06
1.07312e-07
4.56882e-08
9.75881e-06
1.29704e-05
6.69607e-05
6.29068e-08
7.02159e-07
2.68795e-08
6.42225e-06
1.36805e-06
0.000494364
6.7957e-05
4.16011e-06
6.03223e-06
5.63761e-06
5.44265e-05
1.08655e-07
5.78486e-08
0.00116778
1.77555e-05
2.14245e-05
2.12195e-07
1.02186e-07
1.06047e-07
4.17955e-06
8.63281e-05
1.77767e-06
6.32482e-06
3.26508e-06
4.99968e-06
1.84512e-08
1.87808e-08
1.42042e-08
2.05079e-08
1.00684e-07
0.000207833
1.48668e-05
7.548e-05
5.94912e-06
4.26374e-06
4.76022e-07
3.36708e-08
3.60475e-08
0.00023195
2.75209e-08
1.21651e-07
4.60394e-06
5.31705e-08
6.58097e-06
1.42027e-05
4.16092e-07
8.39742e-08
5.98156e-05
1.40308e-08
5.27812e-07
4.44656e-08
2.11048e-05
0.00159948
1.73129e-07
0.000318948
2.34124e-05
5.11629e-08
1.59676e-07
2.30735e-05
1.38467e-07
1.83524e-07
4.17847e-08
0.000193185
1.97258e-07
1.82592e-05
4.86991e-06
2.0084e-05
5.19313e-05
2.22355e-05
0.000202216
2.06379e-05
7.04896e-06
1.80584e-08
3.25848e-08