/*--------------------------------*- C++ -*----------------------------------*\
| =========                 |                                                 |
| \\      /  F ield         | OpenFOAM: The Open Source CFD Toolbox           |
|  \\    /   O peration     | Version:  2306                                  |
|   \\  /    A nd           | Website:  www.openfoam.com                      |
|    \\/     M anipulation  |                                                 |
\*---------------------------------------------------------------------------*/
FoamFile
{
    version     2.0;
    format      ascii;
    arch        "LSB;label=32;scalar=64";
    class       volScalarField;
    location    "2.08459e-06";
    object      epsilon;
}
// * * * * * * * * * * * * * * * * * * * * * * * * * * * * * * * * * * * * * //

dimensions      [0 2 -3 0 0 0 0];

internalField   nonuniform List<scalar> 
49294
(
4.41485e+11
7.12328e+11
5.86309e+10
5.92839e+10
1.14746e+12
6.18936e+12
7.15616e+10
4.68373e+09
4.87229e+11
5.47699e+09
1.22231e+11
4.58547e+11
4.52435e+09
2.21725e+12
1.35575e+12
2.41628e+11
9.18667e+10
3.54576e+10
5.52112e+13
2.96675e+10
2.28617e+11
2.36458e+12
3.65122e+12
1.09423e+14
3.35468e+11
7.19069e+11
5.21757e+11
1.73486e+10
1.33853e+12
2.68687e+12
1.64377e+12
1.8443e+12
5.52965e+11
1.41646e+12
4.45597e+11
1.49002e+12
1.3858e+11
3.54645e+09
1.73273e+12
3.91623e+11
1.0555e+14
8.10349e+11
2.31287e+12
1.99168e+10
4.36343e+11
8.97825e+11
2.57396e+11
3.58571e+12
7.68433e+09
2.2688e+13
9.4973e+10
1.84343e+12
2.76543e+10
1.04116e+11
4.69856e+12
5.68241e+10
1.02966e+13
7.39963e+09
2.35028e+09
3.61538e+08
9.36243e+13
8.41732e+09
4.65325e+12
7.2875e+10
1.54445e+10
2.2401e+12
3.58296e+13
1.16917e+13
1.59072e+11
2.10582e+14
1.18038e+14
3.40572e+10
3.5525e+11
4.84453e+12
2.33475e+12
3.99329e+12
4.41761e+10
1.11043e+12
2.12806e+12
1.38035e+14
3.18075e+11
2.7756e+13
7.45052e+11
6.58632e+10
2.15937e+11
4.38789e+11
5.61121e+11
1.91202e+11
1.59203e+14
2.50735e+12
3.78366e+13
5.27478e+11
4.71473e+11
5.61156e+10
6.80443e+13
1.16473e+13
6.90347e+13
3.91269e+12
2.66968e+12
5.28099e+13
3.67412e+11
2.32775e+12
1.78939e+11
1.2609e+12
9.92275e+10
3.07275e+11
2.00656e+13
1.50909e+14
3.35641e+11
5.04974e+13
8.80723e+13
9.23449e+09
3.19404e+12
8.73688e+13
1.27734e+12
3.92323e+13
2.4881e+12
1.74503e+10
3.66593e+12
1.67184e+11
1.50374e+14
1.21287e+13
9.46934e+09
8.66482e+09
4.03273e+13
5.68341e+09
4.89802e+10
1.24417e+14
4.03869e+11
1.75114e+13
3.00636e+13
4.46229e+13
5.50577e+12
2.87978e+13
6.15336e+10
1.33024e+10
6.60182e+08
1.01241e+13
2.51897e+13
6.79588e+12
9.21757e+10
1.40574e+13
2.25396e+10
1.13525e+13
1.04386e+10
2.83681e+12
3.18222e+13
1.00491e+13
2.21664e+12
3.16507e+12
2.81384e+12
7.20303e+11
2.49572e+12
2.23356e+12
6.40771e+09
1.7643e+08
5.17647e+08
7.03205e+08
3.53885e+09
1.95393e+09
3.45047e+08
4.20019e+08
1.30371e+08
4.40612e+09
8.1015e+10
4.25901e+10
4.48118e+09
1.34502e+09
2.71086e+08
1.2919e+09
1.97863e+08
4.89485e+06
6.09618e+06
2.92999e+10
2.51788e+08
4.1018e+09
1.81841e+10
2.23801e+08
1.69359e+10
3.51165e+08
1.56289e+08
2.97715e+08
3.39426e+08
1.08507e+07
2.87233e+09
4.43341e+09
4.16821e+10
9.52117e+09
2.90953e+07
6.14418e+09
5.78615e+09
1.32062e+08
4.22025e+08
6.06714e+10
2.19766e+09
4.02408e+09
6.0441e+07
1.41596e+10
2.41372e+08
6.73246e+09
2.9402e+08
8.95182e+07
2.18126e+09
3.63406e+07
1.25833e+08
2.80327e+09
3.32961e+09
2.0882e+08
3.91277e+10
1.23202e+07
2.79726e+14
1.47187e+12
9.74406e+12
1.04717e+08
5.1258e+06
7.21812e+11
3.05714e+08
4.64943e+09
3.96858e+07
5.66041e+09
8.26503e+09
9.867e+10
1.03063e+09
1.5668e+08
3.4365e+09
6.04046e+07
1.54425e+08
3.2869e+09
1.34983e+10
3.71199e+07
2.97918e+08
4.43717e+06
1.13309e+08
5.12029e+08
6.66029e+08
1.01659e+10
3.52467e+09
1.00345e+09
2.5933e+09
1.13988e+09
1.20822e+08
2.56739e+07
1.42364e+08
3.13435e+10
2.21177e+09
6.84736e+08
4.00157e+09
4.16495e+08
1.73769e+08
6.8804e+09
1.35063e+08
9.46778e+07
3.81512e+08
1.29715e+09
2.21199e+08
6.18255e+08
1.06298e+10
5.92246e+09
1.15304e+08
2.37987e+06
5.29248e+08
3.15439e+06
3.50104e+07
1.23004e+09
5.02624e+10
9.92593e+09
1.44018e+07
5.39041e+08
1.32172e+09
6.24668e+08
8.20526e+10
4.7162e+08
9.81426e+08
2.25508e+10
1.77502e+10
3.98405e+09
7.60422e+09
3.80808e+09
2.4879e+08
2.96901e+07
1.0887e+10
5.42944e+06
1.24869e+08
7.63813e+09
8.12524e+11
3.89053e+08
1.96274e+09
5.25332e+08
3.60519e+08
2.06069e+08
3.09559e+08
2.51341e+09
8.66711e+06
4.08817e+08
1.44723e+09
1.04882e+10
8.08265e+08
6.25879e+09
8.0465e+10
8.31915e+10
8.92112e+10
2.08041e+09
9.74821e+09
2.47954e+10
6.59667e+06
1.5066e+11
7.33727e+10
1.3122e+10
6.22942e+10
1.14375e+10
2.08213e+10
9.33447e+10
1.5515e+09
1.42694e+13
8.69789e+09
2.20932e+09
1.89961e+10
1.94768e+10
2.56213e+09
1.54793e+07
3.11857e+09
6.62756e+09
2.2976e+10
1.19506e+10
1.14629e+07
2.42653e+07
3.83843e+10
1.06273e+08
6.47853e+07
5.44184e+10
1.13362e+09
3.25353e+08
7.7157e+10
1.44267e+13
9.15785e+11
1.58884e+09
3.34792e+08
4.25461e+09
1.32043e+10
1.71536e+08
2.56596e+10
1.52597e+08
2.08463e+10
5.05127e+10
2.26459e+10
1.50656e+10
2.16207e+06
1.52742e+10
1.56001e+10
4.0685e+09
3.25512e+07
2.63143e+09
1.17613e+11
8.10282e+08
4.34073e+09
2.93833e+09
3.51774e+09
2.96999e+10
4.1883e+08
2.23507e+09
1.31738e+08
1.76651e+10
5.73225e+09
7.21447e+09
1.08542e+09
9.02014e+10
1.69677e+10
1.9273e+10
6.69008e+10
1.50471e+10
3.49898e+09
4.24018e+10
1.77409e+07
9.78639e+09
6.7386e+09
4.10889e+08
7.42579e+09
6.41418e+09
9.42111e+13
2.69561e+10
7.62536e+08
1.54536e+08
1.15575e+09
3.79389e+08
1.06471e+10
2.93315e+13
1.2524e+07
3.0428e+10
1.38316e+09
3.57319e+10
8.61611e+10
1.88115e+10
7.60459e+09
5.83519e+08
1.45378e+10
6.57161e+10
1.88355e+09
6.28421e+09
6.34914e+10
1.55543e+08
9.61885e+10
5.96873e+09
1.07248e+11
7.19828e+10
6.72703e+08
6.26988e+09
8.79201e+09
1.95434e+07
2.01917e+10
9.68424e+10
9.00243e+07
5.73266e+08
1.11777e+11
1.91671e+11
7.80572e+09
4.90301e+10
1.88001e+09
6.29138e+10
9.02923e+10
1.13203e+11
1.25999e+11
6.49132e+09
1.01006e+10
5.96515e+06
9.34392e+08
2.18561e+10
3.37001e+09
3.88052e+14
1.56045e+07
1.53967e+11
1.58899e+11
9.50754e+10
9.21051e+10
7.26453e+10
1.96471e+10
6.4231e+10
2.85286e+10
6.78369e+08
5.0504e+08
2.33572e+08
1.99358e+11
1.15168e+11
8.77441e+10
8.62498e+08
3.81261e+08
3.08059e+10
2.99449e+10
9.34504e+08
7.46581e+09
1.22978e+10
6.82027e+08
5.05805e+09
6.39043e+09
3.06425e+09
7.30559e+09
2.40062e+09
1.88833e+08
8.77699e+09
8.73978e+09
1.29384e+10
3.33554e+10
6.11434e+10
1.58164e+10
2.15255e+10
4.1005e+08
1.88029e+08
6.75305e+10
3.14152e+08
1.88683e+10
5.61294e+07
9.16409e+08
5.65519e+10
1.55184e+08
8.43749e+09
1.03969e+07
3.53057e+06
7.15393e+09
2.08976e+08
1.79342e+09
3.16321e+08
6.89788e+11
4.79954e+08
3.66869e+08
3.43749e+09
1.62224e+06
1.06772e+09
1.75507e+09
1.64049e+08
2.23552e+09
6.93837e+11
1.00722e+10
1.10832e+07
2.44086e+08
1.04312e+09
4.89607e+10
1.28938e+09
1.55553e+07
2.0676e+06
2.50601e+08
2.81632e+09
8.8537e+08
3.20371e+08
1.01856e+09
1.33604e+10
1.82914e+09
1.05857e+11
2.33591e+07
3.76187e+08
1.04897e+10
1.77408e+07
1.77343e+09
1.10141e+07
6.04159e+09
2.5653e+09
4.5826e+10
5.31797e+09
5.39062e+09
1.68415e+09
1.26926e+09
1.11474e+09
6.24727e+08
1.98801e+10
1.39927e+10
2.19149e+08
2.98406e+09
5.4177e+08
3.32987e+09
1.33809e+09
2.09696e+08
1.38418e+10
1.06566e+10
9.57374e+08
5.91051e+07
3.08315e+08
2.87301e+09
6.49525e+08
2.6202e+09
3.09105e+10
7.93835e+06
8.28986e+10
4.71802e+10
3.55042e+08
3.63078e+07
1.2704e+14
1.8262e+09
2.82346e+08
2.68927e+08
1.07449e+11
8.7977e+08
1.1001e+09
1.51425e+10
4.79846e+09
2.32805e+08
3.23734e+08
6.2427e+07
6.68283e+06
2.79444e+08
2.37746e+08
7.43625e+08
8.20751e+08
1.87662e+09
5.08043e+09
1.37709e+10
3.47283e+14
6.80881e+06
2.71251e+10
2.31804e+14
6.29294e+09
2.11621e+09
6.57305e+08
1.68265e+09
8.17824e+10
1.00812e+09
9.31476e+09
5.53765e+08
1.80029e+08
1.38073e+10
9.17615e+10
8.62531e+09
2.539e+09
1.47339e+10
2.00772e+10
1.82389e+08
2.95989e+09
4.81737e+10
3.87943e+14
1.56091e+10
5.2499e+09
2.67608e+09
2.59468e+09
1.88286e+08
9.46126e+07
4.54909e+10
2.20385e+08
3.47281e+09
1.57639e+10
5.39576e+08
1.13118e+10
3.53203e+08
2.48214e+08
1.00199e+08
2.95788e+09
3.7499e+08
1.32581e+10
2.15807e+09
3.54039e+08
7.42548e+08
4.9989e+07
2.03129e+10
1.65377e+07
2.31581e+09
1.69776e+14
2.08807e+07
4.14019e+08
9.23176e+08
7.08246e+09
1.12579e+08
1.32597e+10
2.29353e+09
4.14524e+13
8.26097e+08
9.11442e+08
1.9142e+06
1.23869e+07
1.44242e+09
1.30741e+09
1.51187e+11
5.31131e+08
6.34578e+07
3.87029e+08
2.59295e+09
4.77036e+09
5.42583e+09
1.80704e+08
8.69115e+08
7.54397e+08
1.26488e+08
5.39772e+08
5.90139e+08
7.81395e+09
1.14132e+09
1.15661e+08
3.36837e+08
3.95337e+08
3.8792e+08
2.20006e+08
3.73098e+07
1.82902e+09
4.45087e+08
4.99393e+07
3.82545e+07
1.78211e+09
1.68216e+09
4.71184e+08
4.14033e+07
7.15706e+07
3.80685e+09
5.18201e+07
3.63394e+11
7.03868e+09
3.19211e+06
7.25931e+06
6.97666e+09
7.22867e+08
4.55201e+07
7.66134e+08
3.5461e+08
3.93975e+09
1.4456e+11
2.26132e+11
1.58115e+09
1.18894e+10
1.14386e+09
3.15191e+10
6.82584e+09
2.77454e+10
2.58884e+07
4.60541e+08
2.60576e+09
7.84266e+08
3.15208e+07
1.43096e+09
3.83139e+09
1.31876e+10
4.91565e+09
2.37925e+09
2.61456e+08
2.80824e+08
2.33273e+07
3.54156e+08
1.94119e+08
1.17056e+08
9.43175e+08
8.17573e+09
4.04566e+08
1.167e+07
1.79454e+10
4.91897e+10
2.21719e+09
7.76835e+07
3.28799e+09
3.86102e+06
2.29073e+08
9.9844e+08
1.47692e+10
6.44971e+07
1.3353e+10
6.27326e+10
3.74615e+09
9.36471e+08
2.33732e+07
7.11882e+10
1.10446e+10
2.35657e+09
2.63471e+07
6.46937e+10
2.30625e+11
1.68465e+11
7.28207e+09
3.10221e+10
6.95816e+08
1.0992e+10
2.06082e+10
8.38252e+10
4.95674e+10
3.49657e+10
8.62645e+08
7.26469e+09
4.54805e+10
6.07645e+10
8.04298e+09
2.49545e+10
2.77181e+11
3.67073e+09
9.49383e+09
3.20346e+10
1.08723e+11
1.28396e+08
1.41147e+10
3.96364e+09
2.59219e+10
5.4522e+08
1.87436e+09
1.91071e+11
1.93339e+08
4.19446e+08
2.63045e+08
8.24672e+12
8.82905e+09
8.27188e+07
1.39494e+07
1.27662e+08
1.18916e+11
4.87062e+11
1.94905e+11
1.95131e+11
1.38131e+12
1.36812e+12
1.247e+11
9.16759e+10
1.12862e+11
1.13892e+11
1.056e+11
2.5522e+11
9.89818e+10
3.60577e+11
8.46205e+10
1.33374e+11
3.45933e+12
1.55418e+11
2.95093e+09
1.04332e+13
1.23046e+11
1.60218e+09
1.31691e+10
3.3829e+10
2.06579e+10
8.93793e+10
1.12194e+12
8.23174e+10
8.61115e+10
5.91285e+11
7.14314e+10
5.30991e+11
1.80864e+11
5.58939e+10
3.85795e+11
6.63855e+10
8.34643e+10
3.5425e+12
2.39961e+11
5.5795e+12
1.05113e+12
1.77747e+12
1.9365e+12
4.38551e+11
1.60903e+11
7.20575e+10
1.51967e+12
6.09597e+10
1.24961e+12
4.60323e+07
2.1616e+12
5.13398e+11
4.46182e+10
1.49729e+12
1.48818e+12
1.94475e+11
4.88784e+12
1.23881e+11
1.13314e+11
9.56279e+11
4.86833e+11
8.07423e+10
3.08829e+12
3.32974e+10
5.0393e+10
3.20103e+10
1.02263e+12
1.06131e+12
1.19039e+11
5.21503e+13
2.13912e+11
1.17514e+12
1.14158e+11
9.74287e+11
9.41932e+11
9.112e+10
4.3674e+11
1.99382e+10
3.85974e+11
1.26071e+11
7.61716e+10
2.60295e+11
4.67465e+11
3.20665e+12
2.47651e+12
4.70914e+12
1.54731e+12
5.47598e+10
9.55652e+11
1.18429e+11
1.8866e+11
8.04384e+10
8.22954e+11
8.75631e+11
9.83476e+10
1.89271e+11
1.05503e+11
3.42384e+11
1.10995e+14
1.28438e+13
5.90058e+08
1.12721e+12
2.80084e+11
2.69106e+08
7.15049e+10
3.86931e+11
1.17496e+11
2.40404e+11
4.83563e+10
1.60122e+12
1.52049e+11
3.6471e+11
5.86163e+11
1.90226e+11
3.03099e+11
9.50113e+10
2.61406e+12
1.062e+11
2.88189e+11
2.14064e+11
1.99154e+11
6.32564e+10
3.85542e+12
2.09614e+11
6.84611e+10
1.38329e+10
1.25766e+11
3.50862e+11
2.25506e+10
1.89828e+10
8.79065e+10
4.64081e+11
4.35915e+11
2.29177e+10
5.2787e+11
7.16441e+10
1.20292e+12
5.75064e+09
1.15696e+11
9.50458e+10
2.87782e+10
9.54232e+11
5.04245e+11
3.20269e+12
5.12035e+10
5.86226e+10
8.09258e+10
5.51899e+10
1.05817e+11
3.73837e+10
2.69254e+11
2.17827e+10
6.4415e+12
1.11406e+11
6.03696e+10
9.36825e+11
9.17492e+10
7.2971e+11
1.19703e+08
1.07178e+11
8.96753e+08
1.58865e+09
1.81597e+12
8.53905e+10
1.41921e+10
4.89215e+10
8.22241e+08
3.74776e+07
1.01658e+10
1.00042e+09
1.96847e+12
4.2439e+10
6.10748e+10
1.03502e+10
2.22823e+09
9.05523e+10
7.50416e+10
3.97148e+11
8.77691e+10
1.78265e+08
9.54449e+11
1.19083e+10
3.06224e+10
2.73257e+11
8.67934e+10
1.04617e+10
9.21084e+10
9.47554e+06
1.05333e+08
2.32258e+10
1.30293e+08
9.46859e+10
1.84317e+10
9.30339e+10
8.54188e+10
8.25428e+10
3.7566e+10
7.54899e+10
1.28347e+11
6.924e+09
1.14105e+11
6.28415e+11
5.42329e+09
1.09414e+11
1.22354e+11
2.52622e+10
4.53034e+10
1.2665e+11
1.98771e+11
3.58282e+11
7.65403e+11
1.55232e+11
2.33843e+10
3.23325e+09
1.39438e+11
5.39629e+10
2.63893e+08
2.20079e+11
1.14487e+11
2.94e+11
1.82401e+11
1.23795e+11
7.05149e+09
1.14107e+11
1.24478e+12
1.59307e+14
3.32916e+10
1.00748e+11
1.30587e+13
3.26495e+11
9.49826e+11
4.02467e+10
7.23964e+10
1.47248e+11
3.39049e+10
9.39211e+10
9.09273e+08
5.65995e+11
2.66885e+11
7.44089e+10
8.00458e+10
1.95599e+10
6.18585e+10
1.26986e+12
7.57104e+10
4.15673e+11
6.79538e+10
1.84902e+11
2.25033e+10
9.81156e+10
1.12278e+11
3.63861e+10
1.2865e+11
9.35928e+11
2.14049e+11
1.28701e+09
1.221e+11
5.21864e+11
3.01226e+11
2.03303e+11
2.01722e+11
5.01122e+10
7.69529e+12
1.94224e+08
2.86523e+10
1.05084e+14
5.58188e+12
2.05112e+10
1.20195e+12
4.16199e+10
7.37984e+12
1.48758e+11
1.10778e+13
9.07108e+10
7.8167e+11
2.30541e+11
3.91882e+07
1.24502e+12
4.05098e+11
2.68005e+12
1.39357e+14
6.26856e+11
2.01467e+11
2.56279e+11
1.23641e+12
2.99461e+14
4.358e+10
3.7663e+11
1.07572e+11
9.76743e+08
9.66476e+10
1.20845e+07
1.01816e+11
4.3013e+09
2.88958e+13
1.14176e+14
1.30721e+11
8.98539e+10
8.54951e+10
1.30136e+08
4.50619e+13
3.62722e+12
3.89716e+13
1.00238e+12
2.83475e+11
2.15192e+14
5.85989e+11
4.62784e+10
4.04606e+14
6.62034e+10
1.81298e+12
1.28409e+14
6.7363e+11
3.14212e+14
1.62053e+12
1.1397e+13
1.19534e+13
2.1087e+11
3.00311e+12
5.87435e+13
4.30335e+11
1.55871e+10
1.37654e+10
2.03469e+12
2.63837e+10
9.12211e+13
1.18651e+14
1.34759e+14
1.35656e+14
6.86744e+09
5.78375e+13
6.95836e+13
2.82851e+10
3.05071e+12
9.83591e+11
1.88084e+13
3.5731e+12
3.07341e+10
8.48686e+13
1.26855e+14
4.11485e+13
1.56625e+14
2.03295e+14
4.26704e+12
5.2563e+11
7.94506e+11
8.17363e+12
1.19039e+14
2.37188e+11
3.74696e+11
9.62678e+13
1.90002e+13
2.974e+12
1.0526e+12
1.64888e+11
2.19259e+10
1.4292e+10
2.42055e+12
3.5435e+13
2.63244e+10
8.58004e+10
2.40813e+14
2.96748e+11
4.08613e+13
8.12818e+10
3.02249e+11
5.09798e+10
1.27533e+11
2.79751e+11
1.58034e+14
3.02157e+10
3.59331e+09
3.61137e+12
9.66075e+09
2.64382e+10
3.71538e+11
1.15308e+13
2.33465e+13
3.38805e+10
1.54213e+09
9.87026e+10
2.32686e+13
1.77312e+11
4.16382e+14
3.77841e+10
8.35699e+11
9.95256e+10
4.98911e+11
4.48422e+11
7.0067e+10
1.49955e+11
5.46018e+10
1.97687e+12
2.58726e+12
8.98898e+11
7.9406e+10
8.24271e+11
2.30821e+12
1.16559e+12
4.40329e+12
1.36289e+12
7.8973e+12
8.83648e+11
2.18473e+12
5.85537e+11
7.08445e+10
1.63969e+11
9.69803e+11
6.30289e+10
7.79962e+11
3.4869e+11
5.46607e+10
1.04369e+11
8.88582e+11
2.36793e+12
9.96232e+11
1.34852e+12
2.72559e+11
1.77331e+12
6.7282e+10
1.5322e+12
2.55492e+11
7.83482e+09
6.05564e+10
7.88464e+10
3.71657e+09
1.43878e+12
5.30015e+10
2.22134e+12
1.40206e+13
1.91404e+12
1.54117e+12
1.09748e+11
2.76314e+11
7.14868e+11
1.5202e+11
2.28966e+07
1.05545e+12
1.00126e+12
8.32434e+12
2.03742e+12
7.14371e+10
9.13667e+11
1.46478e+12
8.03142e+10
1.02758e+13
3.90014e+13
3.63304e+10
1.71582e+14
1.6291e+12
3.129e+11
1.58731e+13
3.26197e+11
2.6089e+11
2.30181e+14
4.53477e+11
3.74355e+10
3.96426e+11
1.62576e+11
3.04895e+11
1.82657e+12
7.03942e+10
1.15299e+13
9.68037e+12
1.91045e+14
6.68929e+12
1.23439e+13
1.53437e+11
1.45723e+13
7.77433e+12
8.80236e+10
9.15312e+11
3.27734e+11
3.74456e+12
3.89716e+09
1.96721e+12
5.66591e+09
2.89043e+14
2.9251e+10
2.44127e+11
1.20319e+12
7.81768e+12
4.49664e+11
2.19829e+10
7.97401e+10
5.21854e+11
5.4389e+10
3.8328e+11
1.70459e+12
6.59463e+10
5.00467e+13
8.29663e+10
1.88616e+11
2.70988e+10
6.16417e+10
8.22539e+13
1.86162e+12
1.67927e+13
1.51489e+11
3.58056e+08
5.63771e+10
1.25721e+12
6.6519e+11
5.36059e+12
6.4674e+10
3.81796e+11
4.99835e+13
2.14989e+12
1.2224e+12
3.28813e+13
6.8337e+12
2.82548e+13
1.0392e+12
1.56413e+11
2.24129e+10
8.495e+08
1.1382e+12
1.62182e+12
7.45293e+12
4.3386e+12
1.83551e+12
5.31112e+11
1.02929e+11
3.61776e+11
4.87436e+10
1.06519e+14
7.07319e+10
1.72238e+14
1.12942e+13
1.9904e+11
2.47573e+12
4.91771e+11
1.24861e+11
3.18512e+12
4.37379e+11
3.92553e+11
6.80481e+10
9.03804e+10
6.96438e+10
3.7039e+11
1.7108e+11
2.28334e+11
6.92907e+10
4.38091e+11
6.5954e+11
1.00493e+12
8.55524e+11
5.82627e+11
9.36929e+11
8.52903e+10
2.516e+12
1.78941e+13
2.21821e+11
2.02637e+11
8.80114e+10
2.3074e+12
1.9437e+12
6.66204e+12
1.54949e+11
1.14046e+12
6.01813e+10
2.33066e+12
1.47646e+11
2.06526e+12
8.3105e+10
1.59999e+12
3.44927e+10
2.38851e+12
5.82457e+10
5.27712e+12
1.19491e+11
5.21904e+11
2.13998e+12
7.75229e+10
2.12244e+11
4.66566e+10
6.87265e+10
1.83756e+11
6.81127e+10
2.63232e+12
9.88262e+10
1.4325e+12
2.07271e+10
8.68044e+11
8.42048e+10
7.41876e+10
1.40472e+11
9.07266e+11
2.80002e+12
4.28601e+12
8.36601e+10
7.7263e+11
1.0334e+11
1.35283e+12
7.87967e+10
1.17996e+07
9.61745e+08
2.28784e+12
2.57577e+12
3.09752e+11
6.00021e+10
5.20023e+06
4.48141e+10
1.07037e+12
7.08476e+10
8.36568e+12
1.23456e+12
1.11946e+11
1.1784e+08
1.18307e+09
4.29886e+10
6.43816e+07
8.23725e+10
8.9132e+09
3.35866e+12
5.98023e+08
4.07135e+10
6.33814e+08
3.57154e+11
3.06724e+10
1.40837e+10
2.0769e+12
1.26887e+11
5.87541e+10
7.41102e+11
4.12678e+12
3.49009e+12
3.30834e+12
5.60469e+10
2.00853e+10
3.74354e+11
8.89221e+10
4.15101e+12
6.41635e+10
1.52444e+14
1.91473e+12
2.20488e+12
1.57838e+12
4.30802e+11
1.68988e+10
2.1954e+12
1.63767e+12
2.0222e+11
8.91633e+10
5.55417e+10
1.84738e+12
6.82667e+10
1.26744e+09
6.48884e+10
8.29611e+10
8.99641e+06
2.97857e+11
3.10515e+11
1.96274e+10
3.27659e+10
3.40416e+11
2.60931e+12
5.73976e+10
4.56207e+10
1.37334e+11
5.24737e+10
5.07828e+10
2.3972e+12
1.03814e+11
1.42154e+11
2.15643e+12
1.15701e+13
6.97243e+10
1.65643e+13
1.17474e+11
5.30383e+10
1.58176e+11
8.21891e+10
2.00985e+11
8.54637e+10
8.59959e+10
1.76486e+12
9.16656e+10
1.93891e+11
1.04508e+11
1.00159e+11
7.09608e+10
1.66765e+11
9.35642e+10
7.43763e+12
5.18185e+12
1.22702e+12
5.4554e+10
4.64907e+11
1.08931e+11
1.26297e+11
1.22231e+10
7.79722e+10
1.17675e+11
1.47546e+11
1.85622e+11
2.76218e+12
3.25269e+12
3.10323e+13
1.26605e+12
1.82254e+11
5.81685e+10
8.07091e+10
6.07402e+10
3.1638e+11
3.60507e+11
2.32756e+14
6.56984e+09
1.18504e+12
5.18054e+09
4.63678e+10
6.84653e+10
1.58511e+10
7.5841e+10
7.39727e+10
7.04576e+12
7.844e+10
7.49955e+10
3.01058e+13
7.11355e+11
1.29622e+13
2.16997e+10
3.72865e+12
2.13139e+14
1.89128e+11
8.45299e+10
1.11468e+11
1.93076e+11
2.86273e+12
4.42582e+13
1.56275e+12
1.33263e+14
2.34602e+12
3.27667e+12
2.10626e+13
1.1745e+13
1.74197e+13
3.79824e+12
5.10422e+12
5.7e+13
4.76301e+13
9.10885e+12
1.89316e+12
5.2008e+13
9.9159e+10
4.57737e+10
7.27876e+12
4.38627e+12
5.04201e+10
5.68668e+12
5.65363e+10
4.16396e+10
1.37063e+12
4.2603e+10
2.20008e+10
1.78431e+12
1.69719e+14
8.86122e+10
5.84557e+10
5.49705e+10
6.73478e+10
2.18014e+11
6.82678e+10
1.46436e+11
8.20439e+11
5.01101e+11
2.81415e+11
3.71628e+10
6.2491e+11
7.33225e+12
1.08061e+11
6.66183e+10
1.6105e+12
1.12823e+08
7.92876e+09
5.15995e+12
5.21537e+11
9.82441e+10
9.02057e+11
2.04724e+12
2.16944e+11
1.17262e+13
2.47286e+11
6.66864e+10
2.70552e+10
4.72134e+11
7.16121e+09
5.81195e+10
1.8085e+11
9.07931e+11
2.39057e+11
6.14516e+10
6.87068e+11
1.57566e+11
1.08823e+14
2.11462e+11
3.70356e+07
5.62296e+11
3.05791e+10
1.33307e+12
1.87646e+11
2.94731e+11
1.73178e+11
1.29702e+10
4.06769e+12
1.22703e+12
2.08114e+10
6.69498e+12
4.54643e+13
1.00909e+12
3.79854e+14
3.7013e+11
1.60419e+12
3.25906e+11
2.64939e+12
1.00098e+13
5.1699e+10
3.32814e+10
2.39056e+12
8.89033e+11
1.01583e+11
2.23257e+10
5.81545e+09
5.75384e+09
1.88033e+11
4.35772e+13
1.51955e+12
1.33079e+12
4.0533e+10
2.36685e+10
1.94186e+14
1.5988e+14
1.30905e+12
3.33468e+12
3.22374e+11
5.36863e+12
8.08598e+11
8.08762e+11
5.61443e+12
1.01094e+13
6.96289e+10
1.38126e+11
4.51213e+11
1.64576e+12
6.70711e+11
3.70656e+11
2.44819e+14
1.77427e+14
5.7086e+10
2.51159e+12
3.76955e+11
7.24906e+10
7.63165e+13
4.42474e+12
8.98537e+11
1.2806e+12
1.28827e+13
5.00184e+10
6.62206e+10
6.63755e+12
7.68592e+10
6.75403e+12
1.29201e+10
1.61811e+12
1.25775e+11
2.18444e+11
3.4009e+11
6.76546e+11
3.5176e+11
4.68069e+10
1.01814e+11
6.41994e+13
3.27102e+11
3.99954e+14
1.65601e+13
1.17634e+12
3.59338e+10
1.19456e+12
7.8421e+10
7.58736e+11
5.39517e+10
7.56459e+09
6.18168e+10
6.5732e+13
6.57201e+10
4.11962e+12
2.83331e+11
1.75562e+11
3.23073e+06
1.76665e+11
1.00159e+12
8.17221e+10
1.92141e+10
7.63892e+10
9.4269e+12
1.71495e+14
4.3325e+09
5.06095e+08
3.1061e+12
2.37492e+12
5.43983e+12
2.33129e+12
1.30798e+11
1.63429e+12
5.56626e+10
1.29792e+14
7.3587e+09
1.84241e+11
8.44644e+10
7.31084e+10
4.04303e+09
6.11099e+10
2.49228e+13
5.53371e+08
5.69422e+10
2.75411e+14
8.60878e+11
3.0763e+12
1.90687e+12
2.24902e+12
1.11312e+14
5.80212e+10
1.67148e+11
9.08535e+12
2.91572e+11
2.5634e+11
3.31861e+11
1.89945e+12
1.19511e+12
3.92918e+11
1.16917e+14
8.54894e+11
5.60359e+11
7.91968e+12
1.27123e+11
7.71125e+09
3.86516e+11
2.87244e+10
3.58123e+10
1.23369e+12
7.04083e+11
1.20244e+11
3.1928e+13
2.57785e+14
1.48585e+12
3.31394e+13
1.06048e+09
7.9896e+11
1.03644e+11
1.72984e+14
2.55194e+11
1.73645e+11
7.30251e+09
1.4656e+14
1.17308e+11
5.85059e+10
2.3511e+11
6.03997e+10
4.9855e+14
1.12794e+12
1.0512e+11
5.59075e+10
6.01204e+09
9.32317e+12
6.85111e+10
1.25914e+13
1.15251e+12
2.28774e+11
1.68684e+14
3.1571e+11
6.15735e+12
1.79518e+14
9.35018e+10
5.64513e+10
4.2653e+12
3.20334e+11
2.02595e+11
2.6138e+13
3.71491e+11
3.0165e+10
7.02854e+07
4.17437e+12
2.68916e+08
1.44409e+14
5.18084e+10
3.85403e+10
4.12812e+09
2.68217e+10
7.44689e+09
1.50478e+13
6.26808e+10
1.25499e+14
8.22875e+13
2.36642e+13
3.24059e+10
1.15119e+11
1.01102e+14
5.90324e+12
1.92074e+12
5.46573e+09
2.22886e+10
4.6828e+13
3.49963e+11
2.96401e+09
1.22247e+14
5.74513e+10
3.93039e+09
6.01672e+10
1.94846e+14
6.79446e+09
5.0809e+09
3.0356e+11
1.41562e+14
4.13095e+10
1.0528e+11
5.39903e+10
1.85145e+08
2.82063e+09
1.10946e+13
6.28525e+09
9.899e+13
2.28816e+08
1.29934e+11
5.33246e+12
2.99509e+12
1.78809e+13
5.58998e+10
1.09634e+11
1.9245e+11
1.77681e+14
1.58125e+13
9.44545e+10
9.22814e+11
1.61784e+11
2.23064e+11
7.67093e+12
1.73523e+10
6.55227e+11
2.05271e+10
1.78869e+12
5.61457e+09
1.78732e+12
3.29706e+08
1.56659e+10
3.40908e+09
3.35756e+11
3.12873e+12
2.56018e+11
6.34059e+10
1.34402e+10
7.42118e+13
1.28389e+13
1.66843e+13
2.13915e+10
6.03117e+12
4.59539e+10
2.54445e+11
2.82769e+10
9.6613e+12
1.28373e+11
2.57605e+13
2.1056e+13
5.16151e+11
6.17836e+13
5.21323e+10
1.39749e+13
8.62247e+10
2.21045e+11
3.83232e+07
5.64294e+12
1.56212e+13
9.42623e+06
7.73192e+11
2.20635e+13
2.53304e+11
1.64456e+13
1.25204e+14
2.65701e+12
2.90019e+10
5.14077e+12
1.32159e+13
2.97126e+06
2.70275e+10
7.6644e+12
1.29653e+09
7.27299e+11
1.43637e+12
2.79655e+10
6.73118e+10
9.95406e+13
1.01805e+09
4.34468e+12
5.38025e+10
3.89073e+08
1.27299e+13
1.19623e+10
1.02046e+10
3.95382e+07
8.76744e+12
1.9056e+11
7.61336e+11
2.4646e+12
5.2328e+08
3.09275e+13
2.52733e+12
9.8279e+10
1.01083e+11
2.28352e+09
4.51028e+09
1.71214e+12
2.5359e+13
1.04695e+10
3.06656e+10
4.14654e+13
2.50173e+12
4.09065e+11
9.64805e+12
2.1806e+09
1.64718e+12
3.03604e+11
7.11006e+09
1.74542e+12
4.86127e+12
5.3494e+12
3.73762e+12
4.9074e+12
9.58478e+12
3.29737e+12
2.75708e+12
5.67089e+12
4.54934e+12
5.4561e+09
1.52022e+11
6.07308e+12
1.42875e+10
5.82707e+12
1.00532e+11
1.16141e+14
9.0932e+11
4.74676e+13
2.35666e+12
3.72859e+12
4.48464e+12
1.28206e+12
3.52485e+12
2.89964e+11
4.54917e+12
1.1246e+11
1.73736e+12
1.43354e+11
6.7708e+12
9.48801e+11
9.88107e+11
6.84054e+11
1.99181e+12
1.38887e+08
1.59889e+12
7.80123e+11
2.32585e+12
1.15551e+12
7.57938e+09
1.37842e+12
2.22447e+10
6.60516e+10
2.7378e+12
4.04118e+11
4.77561e+11
7.02585e+11
8.99571e+12
1.94665e+13
1.18065e+11
9.53447e+12
1.29599e+14
3.52408e+12
4.15694e+12
3.45276e+14
8.55805e+11
5.61759e+11
1.81259e+10
2.32819e+11
7.75188e+10
7.03753e+09
1.16352e+10
7.29832e+10
9.9483e+09
6.13845e+11
2.33575e+09
6.88858e+11
3.75049e+10
9.54639e+11
1.85241e+12
4.22136e+12
3.2514e+10
9.77744e+12
1.1605e+13
2.72965e+12
5.51685e+11
6.24148e+09
1.21922e+11
3.98502e+11
8.29912e+11
1.69529e+11
1.80191e+11
6.76833e+10
7.22644e+09
4.4382e+09
2.07686e+11
3.45587e+10
1.1114e+12
1.26054e+12
6.18865e+12
1.74508e+12
4.80692e+13
2.45891e+11
2.74469e+13
2.58632e+12
5.21067e+12
3.05757e+09
1.32975e+13
4.0102e+13
2.29299e+11
6.97339e+10
4.79513e+13
1.29158e+12
3.0534e+10
7.44517e+11
1.67433e+10
3.3064e+12
8.22659e+11
1.51747e+10
1.8087e+11
6.85586e+11
3.7644e+11
8.37637e+11
5.88483e+10
2.18929e+11
7.04092e+10
7.49681e+10
7.80324e+11
1.39338e+12
8.08099e+11
2.85648e+12
6.10754e+10
2.47642e+12
5.80733e+11
7.10786e+11
1.01624e+12
4.6443e+10
6.32948e+10
6.89118e+11
3.22258e+11
4.31395e+10
4.90308e+11
7.88313e+10
6.32218e+10
4.75647e+10
2.16297e+10
3.85986e+11
4.72063e+11
6.19161e+11
2.40907e+11
2.3946e+10
1.71593e+11
2.48052e+11
1.67944e+12
4.23787e+11
1.68406e+10
3.83724e+11
4.97038e+11
3.67749e+10
2.76112e+11
3.30336e+10
6.3155e+11
9.45214e+12
6.92125e+12
5.89543e+11
2.56046e+11
2.65325e+10
2.62132e+13
7.44036e+11
2.61308e+11
7.97344e+10
4.35031e+11
7.88907e+11
3.03113e+11
2.31686e+11
3.54411e+10
1.49298e+11
3.51558e+13
1.55417e+14
9.81398e+11
3.10037e+09
4.74261e+13
4.68619e+11
4.12202e+11
3.73469e+11
2.23429e+10
5.4276e+11
5.14818e+09
3.30317e+13
4.17503e+11
1.35623e+11
2.7877e+10
1.81526e+12
2.14822e+11
1.2762e+11
4.85377e+11
2.42764e+11
8.93703e+11
4.11859e+10
7.99887e+13
3.42877e+11
1.76046e+11
4.44969e+11
3.18785e+14
1.46805e+11
1.16961e+12
1.55724e+10
1.03236e+12
9.63166e+11
1.69468e+11
4.23836e+10
4.19996e+14
1.80775e+12
1.95515e+12
3.0113e+12
6.05568e+11
1.73047e+12
1.85039e+11
2.28304e+11
2.31785e+12
1.13229e+12
2.08306e+10
9.43513e+11
5.18066e+13
8.06047e+11
6.50725e+11
8.54566e+11
1.90629e+13
1.69218e+12
1.14737e+13
1.04536e+12
6.74897e+12
1.33905e+12
3.78198e+11
2.90244e+13
1.93948e+08
1.31031e+14
1.25905e+11
1.09725e+11
1.52544e+10
5.33682e+11
3.3269e+09
8.0929e+09
2.39465e+10
2.36661e+09
1.20375e+13
7.53605e+11
3.83911e+11
1.06918e+13
2.69286e+12
2.5862e+12
1.00563e+11
1.45905e+12
8.92041e+10
2.24617e+11
3.5787e+10
9.25781e+12
1.49716e+10
3.88793e+13
4.18987e+11
3.17602e+14
4.65243e+10
3.2644e+10
5.6109e+10
3.77917e+12
5.8943e+12
4.1602e+13
1.11716e+10
1.11888e+12
1.10315e+12
1.14593e+12
6.34663e+13
7.7023e+08
3.56118e+11
7.22892e+13
2.51515e+09
2.77395e+14
1.01105e+08
8.27799e+11
5.76674e+10
2.56038e+09
1.09075e+11
1.6347e+11
1.44931e+10
3.19013e+12
5.30405e+13
3.84666e+13
6.36567e+10
1.13063e+10
1.33583e+11
2.4213e+12
1.97658e+11
2.76266e+11
1.85262e+12
3.65647e+13
5.30799e+07
3.39898e+12
1.79201e+12
4.06009e+10
1.03355e+14
1.10864e+12
2.0482e+13
8.51223e+10
1.61433e+13
1.84834e+13
3.60414e+13
6.31641e+11
1.67002e+14
6.04633e+11
2.56054e+11
3.61316e+10
4.9745e+08
9.80646e+10
1.06696e+10
5.29533e+11
1.95983e+11
2.20839e+10
1.44533e+11
1.01027e+11
6.94238e+10
2.13539e+10
5.54377e+10
1.4898e+13
2.33825e+12
3.04797e+11
3.17124e+10
6.8508e+09
2.66031e+11
1.80163e+11
1.05253e+12
2.08642e+12
1.568e+11
1.17691e+11
6.58134e+10
6.52771e+09
5.55584e+13
1.59183e+09
9.14683e+07
1.59892e+09
3.64945e+10
4.73154e+09
4.70176e+11
5.34636e+10
6.72253e+09
7.44674e+10
9.6433e+09
1.25185e+10
3.05898e+10
1.20934e+12
6.59506e+09
1.28493e+11
4.08468e+10
1.71887e+14
3.06515e+14
3.41414e+10
2.12461e+09
1.20554e+11
8.08971e+11
5.22415e+11
9.82776e+10
1.03182e+11
5.17553e+12
9.20538e+11
3.56111e+12
7.69772e+10
8.18189e+10
7.0227e+10
2.87154e+11
2.47734e+08
1.35576e+08
1.11442e+10
1.21052e+10
1.29941e+14
4.09547e+10
5.44877e+10
7.57901e+11
9.24451e+09
3.3775e+11
1.89276e+12
6.87831e+10
2.32336e+10
1.29927e+08
1.08905e+12
1.65359e+09
5.28505e+09
2.77682e+10
1.63128e+08
1.11969e+11
3.4322e+11
7.30865e+08
2.18849e+09
1.0555e+08
1.68154e+09
1.74183e+09
8.04216e+08
1.0513e+09
1.04069e+11
9.08424e+13
3.71758e+12
3.58748e+12
1.03956e+11
1.95126e+09
2.12993e+12
3.16792e+12
1.68525e+12
1.12952e+10
1.07986e+11
2.19816e+12
1.80875e+12
1.76973e+12
3.01085e+11
2.97518e+12
1.37225e+10
6.98528e+12
5.56959e+10
3.01814e+07
1.23266e+07
6.49324e+10
1.28967e+11
1.042e+11
8.75986e+11
4.18116e+11
4.70919e+09
2.97969e+12
6.73866e+09
9.91513e+09
1.33345e+11
8.25062e+07
4.42589e+09
5.76525e+10
7.05176e+10
5.69797e+09
2.49131e+12
1.11331e+11
1.53506e+12
3.21432e+12
8.40118e+10
1.73113e+11
3.86662e+10
5.39376e+09
2.14116e+10
1.37718e+11
9.96279e+11
6.72422e+09
1.39081e+14
2.70103e+10
4.6535e+10
4.01394e+10
2.9294e+13
2.25008e+10
3.04932e+12
2.48134e+08
1.1431e+12
8.18015e+12
1.61781e+13
2.78297e+12
3.29361e+11
1.29902e+14
2.09025e+11
9.09806e+11
5.9178e+09
1.08608e+10
8.26234e+09
4.5426e+09
2.32038e+10
4.03797e+10
6.37214e+09
1.46738e+11
1.40319e+09
4.48784e+09
2.80379e+11
4.98744e+10
4.28532e+11
5.45658e+11
1.59136e+10
2.66222e+08
1.22256e+10
5.86158e+08
9.52046e+08
1.56444e+07
2.5252e+11
7.93395e+10
6.68718e+09
5.26135e+09
1.68739e+11
6.24014e+12
8.52903e+11
1.03585e+12
6.90455e+11
7.76689e+10
1.04176e+12
1.41306e+11
4.49534e+12
1.69967e+11
5.22877e+08
2.5439e+11
1.03013e+11
5.42178e+11
1.05107e+13
8.55387e+11
3.29053e+10
1.58508e+11
9.77283e+10
4.60068e+11
4.48348e+11
6.77786e+09
7.09899e+11
2.37585e+10
1.01205e+12
5.16122e+09
1.7099e+09
4.03547e+10
2.03989e+13
1.07976e+10
3.89033e+12
2.17357e+13
8.85213e+06
6.57442e+10
3.31347e+11
1.41919e+12
2.72528e+12
7.72279e+08
3.53609e+11
1.71316e+11
1.54357e+07
1.31589e+11
1.52116e+11
2.05859e+13
4.65769e+12
2.52353e+11
2.39975e+11
1.24155e+09
7.96099e+11
3.67919e+12
3.97675e+11
2.45127e+12
2.26843e+10
3.65513e+10
2.25909e+10
2.06352e+10
6.87158e+11
7.57321e+08
2.40501e+09
5.15237e+08
2.74799e+08
1.07688e+09
3.032e+13
3.81237e+11
5.10653e+10
1.74244e+10
4.42164e+11
5.73157e+12
1.18709e+12
1.04101e+10
4.22555e+11
3.4988e+10
1.79908e+14
1.37099e+12
5.89988e+10
1.89748e+10
2.7448e+14
9.27709e+10
1.36942e+11
6.31911e+06
6.44065e+10
7.94609e+09
1.29234e+11
3.56929e+11
7.04628e+12
1.54173e+10
7.95077e+10
4.76037e+13
2.21059e+11
2.58786e+07
3.96806e+13
1.6815e+08
2.38159e+09
1.57587e+11
6.57919e+09
2.09263e+10
9.90778e+08
1.45018e+11
7.59097e+11
5.80007e+10