/*--------------------------------*- C++ -*----------------------------------*\
| =========                 |                                                 |
| \\      /  F ield         | OpenFOAM: The Open Source CFD Toolbox           |
|  \\    /   O peration     | Version:  2306                                  |
|   \\  /    A nd           | Website:  www.openfoam.com                      |
|    \\/     M anipulation  |                                                 |
\*---------------------------------------------------------------------------*/
FoamFile
{
    version     2.0;
    format      ascii;
    arch        "LSB;label=32;scalar=64";
    class       volScalarField;
    location    "2.08459e-06";
    object      k;
}
// * * * * * * * * * * * * * * * * * * * * * * * * * * * * * * * * * * * * * //

dimensions      [0 2 -2 0 0 0 0];

internalField   nonuniform List<scalar> 
49294
(
12581.3
19433.7
6261.79
5893.06
26796.9
158088
4009.51
804.149
31342.5
1162.11
9957.63
39959
1073.13
50942.1
76464.3
22446.9
8997.65
3726.98
719012
3149.37
22282
106213
118702
1.14547e+06
32534.6
49757.3
34681.8
2137.08
24519.8
71602.7
86943
93878.5
21864.9
80476.3
22902.5
81432.9
6300.36
634.665
89065.6
23109.4
901479
63452.8
71437.2
3169.05
42784.8
63146.7
17952.2
127925
1134.48
229495
7984.66
72980.6
2563.82
5532.5
67078.6
5185.77
243890
5564.2
421.226
1128.9
839211
981.072
165887
6615.86
1900.97
98600.5
606128
239588
12758.1
1.08098e+06
1.16508e+06
11999.9
19011.1
159051
118313
168103
4549.45
71469
92253.6
827870
31067.7
341932
40428.8
6290.97
21072.6
40778
43852.7
14600.3
1.49029e+06
112112
789326
13696.9
22622.4
5618.48
999989
105859
826966
155006
42279.3
681479
27853.7
87181.4
12726.5
71763.2
7544.21
10458.5
391494
1.0365e+06
10683.4
623429
1.04328e+06
1227.17
135391
918626
77044.8
600867
124332
2299.63
148419
6351.92
1.30928e+06
143565
1281.51
1201.88
364431
885.606
5969.23
1.21863e+06
34955
309771
160887
645425
153962
593025
5105.04
1547.62
146.111
261635
532422
214040
4718.86
352202
3423.91
281434
1085.91
78409.5
217576
190566
106123
134569
124419
18421.5
114855
104675
972.274
69.8618
122.21
145.919
430.69
273.867
334.399
112.13
71.173
727.468
8324.12
3076.01
767.764
258.019
116.421
1428.79
876.566
312.971
124.952
2424.07
488.463
584.161
2037.46
379.682
4218.16
97.3622
1010.66
619.004
94.8276
157.237
907.983
491.932
6190.88
1010.05
114.197
753.478
821.562
395.951
626.993
3883.19
756.105
656.102
272.144
4315.7
134.964
816.724
323.009
532.571
337.881
138.496
767.799
437.338
505.709
70.095
5017.9
136.91
1.7283e+06
55129.8
298453
218.738
186.975
15242.5
478.755
669.124
142.948
660.021
5602.99
4573.62
579.364
679.465
426.059
254.36
224.908
425.984
1335.15
158.258
112.856
260.093
65.6469
126.084
145.329
1199.16
367.301
214.29
458.127
278.024
229.402
330.7
66.5242
2967.58
304.35
144.713
693.112
1087.31
69.9935
1835.3
507.615
293.989
578.712
2069.2
406.341
552.69
6552.02
856.816
284.837
250.797
1975.9
285.881
103.076
260.386
2856.38
860.158
193.375
194.819
247.634
699.994
3932.67
1474.21
860.165
1930.62
3899.13
588.763
879.289
610.834
311.253
416.812
1449.81
229.398
488.161
898.558
30518.5
222.768
429.819
686.565
100.863
364.809
123.69
364.876
194.02
482.921
765.22
1083.14
600.654
777.529
26235.9
4462.24
4679.18
2786.55
1377.37
7136.24
256.993
6361.15
4846.65
1916.24
3694.44
4750.71
8722.53
5028.1
3668.97
112061
1342.34
508.625
1727.97
1540.35
431.671
438.958
408.471
4729.82
1933.49
1908.52
179.819
207.586
2636.27
238.273
451.696
3538.25
2188.66
874.623
4167.36
110773
21470.6
2001.29
1538.5
735.971
1767.04
606.734
3995.74
293.17
1771.44
3430.44
12857.6
2038.96
259.714
1339.17
12947.3
2161.38
507.039
427.962
4775.52
2563.43
1694.34
2901.48
2180.66
2131.97
796.145
2214.55
677.239
1614.21
701.655
8611.93
1835.88
4773.4
1687.66
1613.94
3912.24
1878.03
1695.5
3618.71
195.541
1561.82
3175.97
876.058
1048.13
745.205
501609
2455.83
527.485
356.3
3149.48
158.294
3477.65
193094
290.537
2328.1
1263.31
2567.88
4223.88
1797.83
2066.85
611.751
3548.2
5021.52
527.313
924.251
4573.51
169.77
19465.8
2112.07
7833.1
3998.45
1431.84
955.38
1198.81
260.85
1892.08
4426.89
726.46
1531.71
4810.45
7626.28
2489.02
4055.59
898.939
4107.91
33970.3
5393.61
6605.83
4208.62
1916.97
243.753
2218.03
2194.87
4748.26
1.49824e+06
141.001
6261.97
6214.57
20581.6
5535.34
4864.78
2201.06
3893.19
6561.58
651.608
1258.03
498.791
7394.25
6077.27
4266.43
1614.04
562.003
2095.04
2885.44
220.732
859.575
1524.89
1993.3
1864.28
981.56
2935.7
856.714
2272.07
269.377
1177.23
1545.18
1621.76
21339.1
4087.4
1971.31
1891.51
1183.93
469.494
4716.93
1224.19
1774.42
417.299
2066.43
3341.15
600.081
1510.15
337.795
191.323
1174.78
918.155
1761.78
861.9
16839.5
1325.54
126.946
683.617
260.197
306.779
1075.87
192.565
714.735
18881
1097.68
374.651
351.603
780.736
16304.1
3368.33
116.052
256.576
897.969
480.387
1502.27
535.187
1704.76
1658.03
927.463
4176.7
219.508
516.711
1134.6
136.548
359.354
214.834
872.155
416.826
2752.61
870.939
691.354
914.724
368.99
208.701
1365.65
3579.99
1377.14
1076.79
424.799
815.511
1569.61
1138.58
117.202
2830.7
1176.85
194.514
509.457
1354.16
502.351
818.673
1217.23
2386.17
215.868
5108.36
3861.69
950.062
480.216
706240
1618.95
467.05
421.895
5677.66
191.746
1513.91
1810.31
6321.74
289.744
455.542
415.075
248.569
116.525
168.226
1096.78
1387.53
1413.95
630.083
1192.68
1.39137e+06
208.035
3303.33
1.03729e+06
1146.04
580.112
167.791
2333.41
3833.66
449.865
935.354
1341.57
625.269
1405.44
6070.15
909.968
4647.27
1416.39
1856.88
522.066
473.852
3892.97
1.49796e+06
1313.87
2513.36
522.384
341.103
163.98
65.5674
2640.95
79.7165
457.521
1565.81
154.713
1251.27
512.019
124.225
249.649
429.822
103.784
1484.27
508.673
1340.76
821.353
518.207
1557.13
154.892
412.586
958808
168.587
694.655
240.579
830.552
276.264
1252.22
4503.25
332247
772.463
179.336
258.208
233.576
241.563
468.806
8506.49
176.205
71.2568
349.178
426.326
645.809
694.354
71.2886
168.746
191.115
298.379
1027.35
1610.87
1874.59
1182.62
211.152
140.589
1003.4
873.293
345.085
397.498
302.05
116.858
126.056
232.017
296.429
2181.64
116.401
140.467
183.109
453.118
587.638
12418
838.922
261.574
140.037
785.574
149.184
335.859
2398.35
1005.97
718.86
8351.45
9951.54
280.94
1291.93
1010.12
2353.35
845.408
1903.75
187.262
1461.11
499.103
210.306
115.401
246.398
484.584
1210.52
537.782
310.932
110.671
80.154
196.251
128.938
243.97
291.883
892.623
1043.37
112.269
162.889
1639.13
4822.27
318.911
155.8
484.767
213.003
422.774
773.298
1662.62
218.768
3252.54
3321.97
4892.29
1815.21
158.422
4504.86
1403.2
1492.92
381.422
3842.83
11544.5
6247.52
1059.74
2499.95
1655.36
1604.31
14812.1
4402.73
3456.55
3429.41
247.92
1032.72
3512.6
3427.04
902.842
13879.6
13085
1963.84
1185.68
2369.85
21694.8
489.46
1804.44
4717.31
7540.72
1461.31
286.967
9351.7
65.044
112.456
83.263
304514
1015.42
241.653
121.502
65.6939
4863.08
16435.6
13135.3
9593.36
24744.6
83210.7
10704.7
36120.4
13677.6
21852.1
27399.4
10053.6
5454.51
10508.4
5629.52
9738.8
46977.7
11054.3
5221.47
115927
5864.52
3676.23
12021
2683.55
2751.02
29340.6
30220.1
9599.98
12150.3
17151
11642.7
16792.6
8975.14
14961.7
14694.4
27761.9
11908.9
54999.5
8549.72
75364.2
31197.3
28844.5
38357.3
15462.5
10616.1
13565.6
101579
10338.9
28868.2
337.976
39686.4
15739
15360.2
31887
27644.3
7456.63
60172.8
23326.9
18373
21790.3
14090.9
12896.8
48492.2
19337.7
11903
12127.8
22034.5
21043.1
16186.2
320860
13972.9
27991.2
16151.4
22278.1
21395.2
27151.5
13530.6
2399.15
13573.3
8926.7
5458
9478.45
16033.9
46325.2
46601.3
162213
33237
15739.2
22071.3
12076.8
9551.56
9739.71
21277.2
20790
25329.8
11310.1
28047.6
13669.8
796104
109151
400.693
32881.9
12374.7
1147.98
19747.4
15607.4
5711.88
11319.1
11927
30699.4
12109.8
12011.2
16054.5
14805.8
11627.2
12507.6
45560.9
4699.49
12128
8390.18
10740.8
20419
71961.6
7155.31
18077.3
1944.55
15981.1
12369.4
17208.7
7497.96
5716.97
15724
12526.7
2252.13
15122.8
4351.32
23821.4
6399.18
12567.4
19169.1
18585.7
24414
13142.2
43039.9
13638.4
15507.4
4438.44
13091.1
12259.9
15558.3
10954
7638.59
87972.9
11159.8
29104.3
20139
11158.3
20287.7
326.183
5570.49
1087.52
2011.11
33666.6
13811.1
2594.95
3771.02
1517.5
555.219
1347.46
2502.57
30481.5
3005.47
22609.1
9571.15
1856.38
31780.2
4306.18
12298.4
4669.45
394.095
25378.4
4398.82
2901.35
10963.9
4750.06
9835.75
4719.08
200.404
597.323
8554.55
648.388
18803.1
13199.5
7834.67
18582
5089.32
3304.59
3880.99
5817.51
7747.76
36631.5
17001.6
3592.85
7657.92
18679.1
2019.8
3167.52
5618.3
8237.7
11856.1
19541
6510.98
2113.93
531.436
6213.27
18297.8
926.667
10828.4
14042.9
11877.4
7278.96
14453.1
1720.44
36290.7
23760.2
748590
12673.5
11576.3
130644
12245.5
22329.3
3653.67
21320.7
17221.7
3024.19
28116
2179.59
15115.7
11914.3
14312.1
19192.7
5392.87
17659.6
25086.5
4442.96
13547.5
22765.6
10504
15130.1
22172.4
22800.3
2487.25
9031.51
23368.3
7280.59
182.8
10179
14832.4
13677.8
8696.4
10156.7
16925.6
99019.9
431.264
2777.39
1.01605e+06
153270
2121.52
26346.2
5054.59
77584.3
11665.4
230807
7665.36
19631.3
11231
119.153
59527.2
22570.2
122559
981751
29984.9
14129.8
10448.4
69503.7
1.27294e+06
15094
13842.5
11269.9
1443.56
5363.02
235.739
7682.58
679.01
187619
927142
7095.78
7660.01
7396.13
346.905
647688
145169
585217
51989.2
17735.1
1.15594e+06
15780
4771.35
1.74281e+06
16124.7
90693.2
689579
27620.7
1.74619e+06
88337.7
109548
126644
9528.6
104423
724580
12211.5
1917.41
1694.19
33039.2
7063.74
1.01607e+06
839649
786882
794717
1084.61
827077
478601
2445.53
44745.1
22322.9
167212
133831
3155.37
1.01466e+06
794795
365083
1.2779e+06
956389
171795
20704.1
53965
268798
1.18336e+06
15624.8
31203.7
926288
169385
43981.7
52789.4
8266.55
2780.85
2006.09
95902
235112
3863.9
4612.76
1.51262e+06
17655.6
514810
4895.49
12669.7
5102.17
5444.27
22050.9
1.40241e+06
2525.09
618.144
56305.9
1150.01
2363.01
19204.4
137255
268163
14178.2
2894
8190.99
504975
12416.4
1.48745e+06
22545.4
23274.2
9143.54
18981.8
15013.8
24330.7
7786.77
17316.6
37520.7
42759.8
23237.2
9013.16
20375.6
41255.9
24975.6
58310.1
32726.9
186763
20008.5
41595.5
15723.3
5917.88
15190.5
23910.8
20918.7
21833.8
13287.4
3028.62
20732
20842.2
41135.2
59056.7
29299.3
11753.3
32601.6
23242.9
30807.2
11341.9
1180.96
21441.1
25430.7
475.902
29815.2
13173.9
42146.5
362967
33834.6
30983.1
13500.4
13452.3
18683.6
7887.9
450.803
53742.5
27112.5
94564.2
31345.5
23584.7
20769.1
29207.8
4558.74
101792
687624
10890.5
695405
26355.9
10928.9
146336
11367.6
12246.1
1.1849e+06
14153.1
3983.73
22504.6
13014.4
10654.6
51562.1
3616.2
304919
109146
880350
80399.1
294410
11750.8
179834
139317
14539.7
19780.9
11568.2
54592.2
910.027
34896.1
901.017
1.59257e+06
10214.7
9072.56
32224.2
95912.9
15107.3
2200.15
18444.8
14931.7
13557.2
14000.9
34418.7
17945.1
470458
8823.5
13453
3627.64
8613.68
636810
37838
134722
15936.1
719.472
3712.67
25538.1
59769
80151
12145.9
29994.9
606666
111249
29426.3
457031
88799.8
566124
24617.3
8057.86
2559.45
2060.53
25295.5
27528.2
94998.1
56915.3
37759.8
15715.1
9216.57
13391.7
14045.2
752093
19233.9
1.07599e+06
177822
10979.1
43386.8
34697.9
9328.23
49745.5
14935.6
12814.7
16863.2
6610.84
23188.8
12659.1
9892.18
15295.9
21692.4
14152.3
19728.7
21903.8
24399.2
29899.5
21660.5
24323.4
112561
427066
12553.3
10944
7195.32
44976.8
39528.5
85454.4
9636.75
22558.7
11527.2
39783.9
14062.3
35858.1
21601.4
91962.5
3082.53
39694.1
18501
148249
5640.79
15419.4
35920.6
25339.5
11704
14755.8
13277
10482.6
4757.29
44937
23433.3
33962.7
1837.36
25807.9
26191.4
9824.92
14803.4
20991.5
41491.6
62630.5
23374.5
19068.3
6390.52
27854.3
16620.2
297.595
1414.72
45639.7
44326.6
12380
15593.4
227.021
7687.12
28194
9191.63
81246.4
29156.4
35527.4
309.7
257.525
2814.04
489.669
5105.99
839.012
62666.1
1084.08
9557.94
812.104
21976.4
2304.01
2538.91
37504
8625.3
15235.9
20145.8
165541
50584.1
50408.6
5342.87
6942.27
14057.1
18417.5
66849
11638.2
955614
32716.2
44040.3
43912
13935.7
14100.5
37983.3
28625.7
7575.12
6339.67
14913.3
32475.2
16809.5
1211.85
17956
20133.1
163.554
12209.1
12550.7
1756.31
8406.49
11196.8
88623.9
12295.6
2837.03
10277.5
17992.1
6001.2
43882.2
11025.2
10011.4
83102
128021
8690
470691
16823.2
18253.2
9716.3
12625
14821.2
8544.53
23687.7
31691.5
8731.48
8000.92
35829
10109.5
20806.3
12034.1
10371.9
76121.2
66452.7
27024.9
15236.9
15683
34780.9
9950.59
1054.32
15478.6
8485.47
10231.8
9927.48
41072.5
48125.1
415934
22403.6
13774.1
19040.9
23449.5
7700.99
12149.4
13227.5
1.31961e+06
1360.74
25162.3
948.237
3760.34
13807.6
2538.82
12582.9
11024.9
74518.5
16845.3
5927.18
532100
19593.2
344878
2666.12
54536.7
1.35844e+06
7958.83
5328.9
32280.7
10772.2
47784
226365
47340.2
867937
45327.3
67568.5
341470
266258
307621
61445
65467.4
472964
529092
98292.4
76665.9
415138
5236.56
4676.6
84430.1
70520.2
14478.7
187184
19302.2
4336.12
26260.6
2919.06
2965.45
98896.2
899754
11735.2
3564.24
15034.5
21697.6
8552.82
23776.3
17605.1
17753.5
15103.5
11185.3
5601.11
18166.1
70291.9
11746.7
17901.7
69291.4
768.894
1979.6
73297.6
15042.3
8885.35
22404.5
38875
10718.2
111343
11449.1
10930.7
2678.36
15832.2
1059.81
3869.97
14734.7
19951.4
9073.34
21090.7
22421.9
7061.66
567617
12327
530.919
16829.4
2473.02
28357.3
8200.26
11816.6
11354.2
2460.01
151771
66247.3
1548.19
77986.1
598123
22786.4
1.63451e+06
13079.7
27438
12404.5
35854.2
97190.1
13351.5
8377.4
40514.7
22664.9
10392.2
2913.72
951.454
952.563
7435.79
678596
82504.2
88552.8
10259
3336.11
1.46815e+06
886145
37925.2
48176.1
10538.2
74264.7
17166.1
41831.1
81781.4
98978.7
11023
5756.82
15780.3
28613
17918.8
11540.1
1.67158e+06
865146
17500.3
42669.2
11765.9
21017.8
772740
64567.8
22045.5
64585.6
186196
10982.6
5936.62
91463.6
5397.43
74874
1494.39
31964
6835.64
8630.65
11521.3
17604.8
12510.6
14789.9
33237.1
825288
10785.8
1.45367e+06
278387
79287.2
2867.94
24193
7526.41
19119.4
11570.5
1088.46
6013.87
761508
21542.5
48434.3
9708.77
8049.39
301.813
10842.6
28399
15455.9
2838.16
22007.7
89841.5
848559
895.646
1893.52
56595.7
104352
65230.4
81447.6
9642.78
28949.1
19547
961472
1118.82
18800.5
7532.9
9773.99
570.534
16845.4
540844
1794.19
13621.3
1.53752e+06
21166.6
43812.8
37594.5
38368
1.26791e+06
11000.1
12318.1
91211.6
9155.7
9210.95
12348.4
33424.1
26560.6
11932.5
771179
64439
27258.9
86503.1
6084.8
1168.95
12129.6
2465.54
6153.93
25248.2
19327.1
8372.06
300792
1.40713e+06
33090.1
365038
786.004
21046
5363.54
929421
14039
11961.8
1118.33
726783
12306.6
5371.8
11935
5604.17
1.78506e+06
21694.4
5340.06
15716.1
925.504
97655.8
5539.64
180063
25509.7
8387.19
1.03428e+06
13119.7
130112
962444
14965.2
17754.8
77178.8
12940.5
8890.67
335917
11785.6
3411
370.198
54558.6
475.561
1.29547e+06
10186.4
3830.37
918.255
3208.17
1134.77
325402
19886.3
968881
910145
304440
3699.54
7451.29
747358
193778
66825.6
711.353
4109.84
345391
12006.2
593.149
1.11596e+06
11875.9
564.586
4576.85
1.4205e+06
1064.13
978.022
28006.9
1.15772e+06
3285.03
9317.66
4506.88
67.3297
5016.49
203105
1659.37
1.07297e+06
259.334
9922.44
137341
106598
477181
5605.39
18933.1
15125.5
1.27572e+06
379467
8582.04
38468.4
6964.43
7819.81
106378
2092.92
30850.6
2398.44
54990.3
932.421
91671.7
113.617
3251.13
433.019
32335.1
116918
24454.6
5342.68
1785.61
708657
358700
222056
2210.55
185576
5671.39
13336
2381.21
283171
9958.02
371522
173614
44520.8
718460
5174.35
344374
6903.19
19937.9
328.299
230324
281009
161.386
49827
473611
16198.8
282998
1.07644e+06
98880.4
2547.23
187060
168928
243.141
3077.13
128560
728.124
32032.8
77022.7
2216.8
3980.41
1.00139e+06
2103.95
138828
5406.81
863.599
335842
1658.13
1038.04
105.573
307994
13457.2
19809.2
116496
389.197
593198
110917
4467.25
27065.5
347.875
6890.76
89971.8
475605
1869.99
3429.27
626197
129485
13112.7
248067
705.853
90185.9
10385.3
1194.43
80806.3
179142
190942
150345
187295
344028
138294
115505
198517
169429
634.346
11529.1
209565
1760.62
234564
7610.84
1.06723e+06
52941.7
624886
110918
168950
168999
51228.7
163914
9986.1
67470.9
8776.82
79775.7
12061.4
232123
55406
54159.5
41904.7
98821.3
382.958
85353
48020.8
109583
68061.5
1384.25
77314.2
2480.72
5505.57
131502
33755.9
40803
43648.9
179334
304485
9872.34
273176
600873
138982
161388
1.55928e+06
18400.9
35185.1
2329.74
22520.7
6123.29
1422.05
1788.87
5098.23
1834.04
18451.5
550.554
43802.8
3048.59
63558
93467.5
167961
3635.13
253328
296740
138226
36330.4
1012.27
12878.5
26053.9
55126.1
15498.3
18782.8
5016.79
721.836
869.992
12552.6
2978.24
66975.4
72840.6
204043
90480
812160
16351.3
200799
117618
189416
338.46
215043
604386
21949.5
7804.28
584285
74880.4
4809.05
55867.2
2106.45
121350
63383.6
2569.79
18858.4
48533.6
26062.2
55230.7
3864.12
14725.6
6631.71
7067.75
61189.6
92412.3
57386.2
125673
6388.87
103850
43442.9
49715.8
66264
6613.61
6127.64
56323.6
33877.4
4850.7
38851.5
9161.35
6241.29
4938.89
3091.98
32595
51575.7
45345.9
21039.9
3987.67
17707.1
23417.7
78510.6
35218.5
1844.63
32986.7
39168
3999.91
25717.6
3849.94
45314.7
213832
171734
40081.7
24957.1
4236.83
557338
36279.2
22090.6
6550.73
36933.6
55344.3
27868.3
22755
4033.15
16305.7
604538
1.00462e+06
56910.8
677.206
680728
37304.6
37245
32784.9
3651.52
41080.5
1017.72
208819
39230.4
15074.6
3197.03
89922.5
21437.4
12978.1
35112.2
17304.4
48784.7
4374.89
863599
28781.3
6825.41
30209.9
1.71679e+06
13324.6
68483.2
2245.11
63761.9
59789.8
7500.69
4463.83
1.69432e+06
90337
97606.1
113375
15557.1
89976.4
11364.8
19337.6
88348.6
34581.5
2684.64
41201.9
395727
62527.2
45885.3
56212.4
445460
68254.8
301159
56384.4
222939
72826.6
18716.1
243327
129.304
1.26144e+06
10143.6
17745.7
1884.09
26665.4
544.122
2050.72
2492.89
343.338
280413
54334.8
12609.5
291069
117034
38333.6
6460.4
70481.5
6490.74
21532.5
4010.76
183139
2593.55
206025
24494.1
1.66458e+06
6225.03
3708.63
16937.8
151460
164741
641385
1479.61
59251.6
55501.9
23368.2
730003
621.013
12908.9
770884
346.506
1.66883e+06
288.264
24340.6
5344.26
2735.11
6346.76
7538
1857.74
121742
357478
608905
6116.42
1586.42
12436
114823
14952.6
9752.93
37990.2
524535
115.012
141123
80899
4269.19
1.02552e+06
56619.3
456192
6066.42
450096
162102
580150
35368.6
1.37888e+06
41314.8
13255.9
4010.98
1743.71
5012.51
10156.1
16537.1
11971.7
3817.97
10571.7
37758.9
3942.72
2140.45
13647.5
361197
44031.6
24809.4
3438.2
1064
18050.4
16755.8
67866.2
97638.8
16566.8
8275.79
7386.68
943.934
931845
1874.72
752.808
3146.76
2411.53
4254.87
15071.8
3917.52
812.715
24845.5
1280.24
2145.52
3304.04
65984.9
1337.61
9671.56
3179.69
907243
1.51864e+06
3657.98
431.862
37770.9
23723.4
17950.6
5506.94
30216.5
59589.2
21487.9
136440
24811.3
18815.2
17532.2
11606.5
478.454
364.98
1185.04
1672.89
931228
3362.1
5251.15
47741.4
1299.56
13641.1
110870
8041.07
2291.31
73.8807
57716.6
1599.82
664.548
2598.7
229.819
18954.4
10861.4
2249.72
425.966
73.4183
459.575
295.501
1230.55
200.46
11328.6
841863
54016
57344.6
11595.3
432.145
66970.9
60042.2
28583.9
3984.1
6510.18
35116.3
30469.9
32171.2
11892.2
38550.3
2344.01
264698
7464.21
130.185
153.471
3608.78
5441.19
31150.4
20699.1
13890.3
6835.93
50178.8
885.579
1411.82
8150.59
434.026
685.803
13126.1
5928.02
6034.34
46894.6
5957.51
28246
123760
14550.8
7123.7
9776.37
906.836
2164.57
9718.36
21174.2
1250.63
1.2508e+06
3410.75
4643.85
4267.03
343270
2623.53
95985.6
84.7855
65548
193018
161536
51779.7
11999.7
1.11459e+06
20363.4
57953.8
685.148
1383.49
1152.32
766.097
2697.46
4372.94
1398.99
5703.94
1687.18
6724.97
12420.2
16678.6
15621
15717.5
2886.98
87.2255
1336.91
1319.12
389.964
106.267
11403.8
4133.26
2597.57
903.779
6769.55
199222
58298.1
63115.7
37549.6
12764
23227
15741.7
170033
11995
1092.01
23458.6
6902.58
27692.6
299534
47805.1
3813.09
8353.4
8383.93
40881.8
36566.1
707.726
49396.8
2331.95
22768
831.873
1100.34
3134.99
138296
1389.96
57345.1
168706
212.534
19672
12691.7
31313.7
42874.9
664.223
32881.5
17497
437.067
5563.42
12831.5
387298
80373.9
8576.57
11029.8
1074.11
19926.3
48371.6
14062.9
44131.5
2643.55
4061.12
2542.7
2295.14
47692.9
1296.73
609.077
635.928
128.199
212.8
229914
21839
3543.61
7230.32
25703.4
190668
26035.9
1366.42
14557.4
10389.9
940424
32154.3
18405.5
2285.77
1.70663e+06
5259.67
5990.73
326.145
3771.19
5552.84
7332.57
13260.7
239196
2002.3
4115.15
680679
12631.7
226.366
589505
175.469
338.585
6691.37
1988.89
2320.38
1464.91
6342.95
19231.5
5541.15
8572.16
37115.4
1295.83
48986.5
4324.97
659.241
917.733
100.731
802509
47913.7
2262.8
13427.6
5708.96
4595.79
6388.4
4041.62
1.18555e+06
889.274
3724.38
27363.5
5493.57
78911
4202.61
16150.7
13816.3
26550.7
5347.94
2595.82
17493.8
10801
81998.5
18016.4
512.566
16427.7
5399.66
19861.8
9798.32
541208
356014
1706.69
342243
4665.59
909.561
4846.9
7459.86
1976.08
419.445
209058
4803.85
502240
281389
1969.57
4217.12
163484
3657.31
2830.58
45619.6
5601.2
1.35834e+06
3023.83
3887.21
751.08
7609.48
7476.37
21813.3
32265.5
5163.32
19652.2
2808.28
19592
660.847
75276.1
5084.73
30960.6
37636.7
16645.9
11534.9
53554
14105.5
41536.4
6646.57
54750.4
56297.5
539.34
861.926
583.949
3732.7
15626.6
5033.45
114038
48719.5
2265.62
35146.2
1018.8
43985.9
24026.9
8288.44
629.835
10528.3
49426.5
13299.6
22401.8
11531
2799.26
15604.1
2929.96
9061.42
12757.2
9667.32
8161.8
275.498
1092.55
117838
341806
4434.7
195748
118885
1351.32
6827.82
1533.46
1.81884e+06
1.04393e+06
200432
909996
4915.39
292561
52568.8
340.743
5266.81
20650
3802.87
11229.9
5411.75
1776.4
8325.35
107773
2079.07
4538.53
304390
1092.92
4012.83
3048.99
9401.3
39631.7
293.712
24155.5
415.543
14683.2
8947.46
327870
624662
770817
129607
15589.6
30458.1
61135.5
38053.1
47721.6
11107.1
20852.1
974.317
3315.15
3281.18
4245.44
532610
1059
522472
5006.46
345.632
1752.76
69881
5308.72
5914.54
4259.59
2702.97
370.249
387.274
1419.92
2110.59
174921
4210.89
28748.4
12276.5
58033.1
4276.59
21787.8
350.143
3408.21
441938
3612.52
72.3823
118296
52935
10321.6
19282.9
737.091
48009
14312.4
16690.5
27496.4
17419.3
2576.87
11910.1
16419.1
29549.1
63189.7
636703
8190.09
33158
15265.9
10331.1
47368.5
822.228
1.52544e+06
40407.3
2779.17
884.753
4243.65
15300.7
1087.06
4792.66
329.504
26569.6
16986.8
17182.5
8972.82
19716.8
9749.56
12906.6
1880.88
69683.2
20327.9
2137.87
22558.3
1052.55
38133.2
21125.5
9778.21
43048.3
16312
21853.3
2416.59
4513.47
2480.07
2442.44
34721.9
58.4383
4030.19
7809.35
76014.9
11118.1
4606.24
49311.2
15619.5
3997.18
4378.07
121652
181874
15907.1
89.0296
6876.75
9622.96
7030.99
3324.38
4978.99
7463.36
17535.2
26547.1
48328.8
1384.91
808838
38526
28062.6
3076.72
31059.6
7057.05
13715.9
1105.05
167964
822.988
4944.1
26198.8
1037.12
102303
3607.47
6367.08
4988.13
88454.1
2375.41
4019.95
4346.34
935.755
260.459
5089.37
6224.05
2579.34
888.967
308.335
11782.6
1842.87
467558
94495.7
9949.72
11881.5
2098.53
3981.01
4033.43
3842.37
18279.1
27989.3
13222.7
13609.8
11482.7
3939.36
48618.6
183.098
1.08061e+06
770.427
68542.3
17478.1
827.648
15952.8
108164
5962.58
54797.9
32738.5
498.206
12048.4
2189.39
210.63
302036
2330.88
112.565
467.902
25216.3
20317.5
169.038
509.539
10193.4
208241
27568.9
4889.92
48749
2353.06
9620.92
9052.18
21936.3
51554.2
24569.6
2385.32
703082
335.275
9430.79
1628.14
3769.93
1062.96
26780.7
5761.08
7222.25
10946.6
2251.82
4277.36
13304.6
4497.2
2744.96
36903.3
227724
153247
59542.4
13886.9
22171.3
11902.3
479.961
14205.4
9450.82
9791.08
1.19663e+06
16064.2
15381.7
70290.9
21261.7
34826.8
34141.8
56414.8
71770.4
70384.8
1136.12
1979.46
288849
4349.25
9111.91
19836.3
6952.35
4995.68
30786.4
6055.47
4775.09
16659.5
2051.47
789512
886620
18334.9
497.858
7502.27
2388.55
3568.76
46536.5
4524.73
1.62193e+06
17865.5
1482.31
46677.6
5337.08
794.34
933.737
15735.3
4375.41
1194.51
7137.28
51637.5
5598.31
30968.7
1192.83
419327
4066.95
8776.29
1634.2
11762.6
42460.9
1136.26
503734
789.457
301533
3632.83
8818.43
21701.1
17747.4
6247.22
8739.03
1372.26
4873.6
3401.77
2606.12
853.745
477.768
881.814
3056.32
126071
6665.35
18783.2
94199.8
6034.24
68635
972.066
10992.7
31539.4
1.32055e+06
262094
1069.82
31791.1
2765.2
38894.8
87514.8
2897.27
197013
39155.3
339339
17218.7
3859.46
16662.7
1358.13
1.68387e+06
2365.79
5056.61
1145.53
47752
5433.82
3714.07
1942.6
376.817
1154.68
1670.01
5135.78
2227.26
3825.77
13749.1
961.777
1215.7
14078.5
123617
68839.9
70527
21854.2
6176.29
13844.8
307.738
138898
2691.26
2722.05
6015.65
7787.62
1356.44
1148.35
11869.2
19931.9
9683.03
6975.09
3318.08
17810.5
19633.9
32573.3
10615.6
35533.6
5937.17
7373.89
5640.48
58679.4
49945.4
9897.7
21966.5
5703.95
5184.53
13088
7595.9
14907.2
37611.7
20266.1
10855.3
20591.4
2571.33
7661.83
99306.8
1.0373e+06
13287.5
660.459
7457.14
617.604
2415.17
47870
7877.28
25510.7
3215.24
424.554
1.00407e+06
3584.4
520971
84803.9
15359.3
137523
19670.2
4012.08
5369.29
115.33
1466.3
168.491
73.2613
129744
1317
12946.7
12524.1
2906.09
5327.54
901.21
320.077
727.724
49299.6
120.536
119706
10928.9
17656.6
3010.58
12666.8
47977
8124
49804.4
5671.64
11031.8
3196.56
3818.07
33863.6
12158.4
3603.51
235918
19950.7
27301.3
130332
177438
10005.4
3696.72
11665.4
18319.9
486.741
8782.59
131999
10343.1
38535.5
1253.64
12986.5
1233.17
2450.01
137.545
213.022
308.556
3483.92
7511.83
237.702
11528.5
1683.57
3839.17
2101.83
5375.19
385471
15064.1
5234.71
21462.7
44447.4
8008.83
920.583
264397
70269.9
569027
272596
28455.2
5912.8
24677.4
13103.8
1754.47
5367.44
3683.17
3071.99
4928.02
7736.65
3532.74
4707.63
2784.38
2315.54
262548
553.912
396233
613890
1.24108e+06
2887.26
234.587
12700.9
43302.4
18405.4
77897.3
34324.8
50289.7
12562.6
124324
18581.3
99328.2
637290
51732.5
239457
94888.9
10748
299.12
127.799
2544.37
357.635
2033.44
1695.16
1394.8
368450
3082.37
4390.51
43138.5
3867.58
24424.8
9894.02
4821.52
12976.6
1705.57
28808.5
201324
1356.46
10389.7
523860
1.11086e+06
100371
990.605
3004.69
983.556
439008
301366
34773.2
55234.1
14928.6
3219.44
4409.38
42740
796739
5076.41
1025.61
413.917
45892.9
23340.9
8472.21
767.92
30723
13357.2
8355.45
10287.4
128581
13775.7
1866.67
3418.59
10155.1
400.403
120768
189017
1787.86
21809.4
7817.18
6067.66
60537.4
151.757
891.178
122.355
109444
34575.6
126040
15821.8
4883.47
33209.3
21310.1
14667.5
18558
29480.5
584971
204.001
1382.46
63289.3
10219.9
49474.4
251.241
10702.1
4141.44
8069.6
36386.9
2766.1
947.277
2970.73
344.895
3239.45
343.199
4458.82
120.911
141.51
977.323
548.338
79046.5
30923.4
2075.9
10126.8
161304
3275.22
2700.27
146777
69241.2
1674.47
552.426
40851
12867.7
5914.89
14773.7
10665.3
11089.4
18766.3
7722.94
16033.3
645744
13908.3
32868.1
3091.79
1649.79
1810.48
8668.59
484226
2871.87
5805.59
3003.2
23422.1
66122.7
775.274
966600
4590.51
50927.4
11295.6
6621.8
11116.7
136516
23892.1
3088.07
3664.25
4741.38
15336.1
1987.68
14864.4
413.45
546.675
24539.2
17363.1
19417.1
18559.4
392.221
16223.8
293.509
508.9
28607.2
14805.8
18689.2
127106
35517.8
1300.52
9465.28
142545
23093.4
27103
117850
3741.44
150597
65018.9
19446.7
11570.8
16319.2
620041
3801.34
9123.82
2523.49
1511.22
57572.3
468182
14874.9
9795.42
860.977
1302.47
264.987
2013.86
58275.5
3027.17
5046.86
17854.2
150316
1594.99
29429
21664.8
4138.33
1417.91
1136.16
799286
711958
17341.3
47020
33700.8
70769.5
8435.65
48435.5
689098
3770.79
462.872
3645.81
6521.8
14000
71916.3
20190.7
101100
727.805
30224.1
10583
237.495
1957.34
1981.65
131706
14812.1
23569.4
3617.59
30594.9
103930
433.951
245222
15653
311.405
4670.86
33020.9
1307
44128.6
2790.96
39706.2
685.708
32301.3
496.551
782.987
31882
4161.28
3660.62
18361.1
4191.05
1579.25
951.565
2367.08
74926.9
554.245
1074.59
29016.5
17936.5
5691.74
8489.76
3876.09
194.39
14932
2284.67
1911.38
89579.9
5386.94
15748.1
37115.6
905.756
1934.61
17948.3
13435.5
105.426
14489.1
812.327
47056.5
15601.8
1389.21
4504.72
1532.6
598.707
48431.4
43981.1
621900
55779.3
47861.4
1095.21
5751.17
1149.97
4003.9
44368.9
7871.48
35138.8
35589.5
8014.26
4013.25
5238.01
7036.68
14983.1
84514.4
12519.4
1469.59
22879.7
10131.5
3363.56
186918
4895.8
66684.5
3470.13
44067.7
4744.37
45540.6
3507.66
4219.23
10845.7
811.115
12860.9
53163.3
17120.7
4585.54
11411.9
23092.4
12421.9
15281
992.192
347.88
423621
1241.63
336739
12267.2
9077.42
12860.6
76030.8
15539.6
20954.9
41343.1
61001.8
15394.4
5875.06
12479.6
51107.6
15910.9
24925.4
143.271
2635.04
20197.2
16835.5
251605
1093.3
16987.5
1.65103e+06
19010.3
150903
9885.34
15099.4
30906.2
120399
24930.6
1157.11
10903.5
48727
10906
20176.8
22995
9550.75
21251.1
29448.7
32126.2
49917
3493.13
1974.97
9793.72
59489.8
40146.4
41408.2
8451.89
5596.7
3757.43
24624.8
71.052
191925
2665.82
445883
113707
319395
235.097
2387.77
5465.03
44406.5
94313.9
22877.4
246.547
911.82
3522.8
919.129
863210
84418.5
28517.6
153080
2032.74
68432.1
38693.9
667418
3021.13
211198
3897.27
26285.6
5893.37
50278.8
46624.6
5064.5
68589
67297.2
26961.2
4979.16
1315.84
5538.45
1093.51
184897
221570
17545.9
39763.1
10366.3
26107.6
82163.1
31508.3
13944.7
1295.16
132027
12419.5
28787.6
57169.7
259.694
3668.61
2748.77
5898.85
32066.3
5158.67
6078.29
13784.4
4629.84
18194.2
22891.8
49212.7
22745.9
263722
213894
746.153
98857.2
1609.46
14106.7
5704.24
262276
235.154
20583.4
1270.51
4409.24
32650.2
55836.3
11993
29232.7
37914.6
9214.91
15208.8
2046.28
4712.21
8949.17
8186.13
2364.76
4477.84
27259.1
4563.4
395404
10592.3
5041.43
16740.3
11201.2
3150.93
4424.73
1451.12
31733.2
6733.32
335.69
1808.09
98695.7
967.706
1011.77
14050.2
38599.8
36544.4
550196
3483.69
1.26042e+06
27456.2
97063.3
28351.5
22191.9
68287.9
34945.4
275122
10806.8
12390.7
67469.9
359395
3881.5
11481.3
4706.37
53069.9
3477.97
767850
22026.9
27084.2
2328.52
2141.96
250354
12312.3
29101.4
10887.4
23976.5
1132.91
2603.91
30437.8
64356.1
2212.55
16544.1
193.971
25914.2
4709.95
25790.8
380.366
1882.32
6463.69
16532.3
37781
23435.2
13381.9
4786.91
25454.7
20528.7
1604.31
430008
2214.73
98901.6
3348.53
3084.03
12304
26419.2
3781.09
2942.45
529270
8442.77
20916.8
6961.89
132475
10509.7
7630.2
3497.59
3457.03
7012.77
32270.5
2827.49
100564
367975
17494.5
5253.57
10369.5
1208.41
581.292
43667
3891.76
7890.67
2106.09
3970.28
17164.1
27381.7
499.874
239298
2143.75
53718.8
18776
3647.74
40354.6
11243.7
23573.1
2286.69
25028.8
14030.1
36675.7
20186.4
3648.2
835.282
7329.19
1978.26
23001.6
60805.9
35945.1
16234.5
47818.8
19314.1
435120
34662.7
37673.8
7733.42
6235.43
12036.7
440.9
35592.8
2871.22
3414.49
26597.6
15511.9
41636.8
3698.65
4718.11
404.868
5053.41