/*--------------------------------*- C++ -*----------------------------------*\
| =========                 |                                                 |
| \\      /  F ield         | OpenFOAM: The Open Source CFD Toolbox           |
|  \\    /   O peration     | Version:  2306                                  |
|   \\  /    A nd           | Website:  www.openfoam.com                      |
|    \\/     M anipulation  |                                                 |
\*---------------------------------------------------------------------------*/
FoamFile
{
    version     2.0;
    format      ascii;
    arch        "LSB;label=32;scalar=64";
    class       volScalarField;
    location    "2.08459e-06";
    object      nut;
}
// * * * * * * * * * * * * * * * * * * * * * * * * * * * * * * * * * * * * * //

dimensions      [0 2 -1 0 0 0 0];

internalField   nonuniform List<scalar> 
49294
(
3.22684e-05
4.77169e-05
6.01883e-05
5.27214e-05
5.63216e-05
0.00036341
2.02183e-05
1.24258e-05
0.000181458
2.2192e-05
7.30083e-05
0.000313392
2.29082e-05
0.000105337
0.000388133
0.000187676
7.93127e-05
3.52572e-05
0.000842729
3.00891e-05
0.000195452
0.000429381
0.000347311
0.0010792
0.000283976
0.000309875
0.00020748
2.3693e-05
4.04248e-05
0.000171733
0.000413875
0.000430074
7.78105e-05
0.000411503
0.000105942
0.000400545
2.57793e-05
1.0222e-05
0.000412033
0.00012273
0.000692938
0.00044717
0.000198582
4.53817e-05
0.000377567
0.000399716
0.000112687
0.000410751
1.50739e-05
0.000208927
6.04165e-05
0.000260034
2.13922e-05
2.64586e-05
8.6188e-05
4.25928e-05
0.00051992
0.000376563
6.79444e-06
0.00031725
0.000677012
1.02913e-05
0.000532243
5.4055e-05
2.10581e-05
0.000390601
0.000922846
0.000441869
9.2092e-05
0.00049941
0.00103498
0.000380529
9.15636e-05
0.000469961
0.000539593
0.000636887
4.21671e-05
0.000413987
0.000359936
0.000446867
0.000273106
0.00037911
0.000197442
5.40798e-05
0.000185076
0.000341066
0.000308446
0.00010034
0.00125555
0.000451158
0.00148198
3.20099e-05
9.76926e-05
5.06287e-05
0.00132264
8.65905e-05
0.000891559
0.000552671
6.02614e-05
0.000791465
0.000190045
0.000293868
8.14618e-05
0.000367591
5.16224e-05
3.20372e-05
0.00068745
0.000640719
3.06049e-05
0.000692704
0.00111225
1.4677e-05
0.000516511
0.000869288
0.000418237
0.00082824
0.000559169
2.72743e-05
0.000540799
2.17199e-05
0.00102597
0.000152942
1.56086e-05
1.50039e-05
0.000296397
1.24198e-05
6.54725e-05
0.00107425
0.000272283
0.000493178
7.74898e-05
0.000840189
0.000387485
0.00109908
3.81179e-05
1.62047e-05
2.91035e-06
0.000608524
0.00101282
0.00060672
2.17421e-05
0.000794185
4.68103e-05
0.000627918
1.01669e-05
0.000195052
0.000133886
0.00032524
0.000457265
0.000514933
0.00049513
4.24012e-05
0.000475712
0.000441498
1.32775e-05
2.48972e-06
2.5967e-06
2.72511e-06
4.71749e-06
3.45473e-06
2.91672e-05
2.69413e-06
3.49697e-06
1.08097e-05
7.69758e-05
1.99944e-05
1.18387e-05
4.45467e-06
4.49989e-06
0.000142216
0.0003495
0.00180099
0.000230501
1.80496e-05
8.52846e-05
7.48743e-06
2.05462e-05
5.79724e-05
9.4554e-05
2.42947e-06
0.000588195
0.000115832
2.38433e-06
0.000205065
2.58324e-05
4.91264e-06
8.27557e-05
9.64363e-06
4.03394e-05
8.31609e-06
1.04987e-05
0.000106844
8.38358e-05
2.23684e-05
2.34125e-05
9.62762e-06
0.000110283
0.000118384
6.79189e-06
8.91702e-06
3.1937e-05
0.000285159
4.71045e-06
4.75035e-05
0.000421642
6.14062e-06
6.91273e-06
2.11761e-06
5.79166e-05
0.000136929
0.000961058
0.000185842
0.000822723
4.11219e-05
0.000613833
2.89689e-05
6.74769e-05
8.66674e-06
4.63407e-05
6.92645e-06
0.000341852
1.908e-05
2.93117e-05
0.000265193
4.75407e-06
9.63987e-05
2.94805e-05
4.9687e-06
1.18857e-05
6.07252e-05
3.84762e-06
0.00137212
3.423e-06
2.79425e-06
2.85399e-06
1.27307e-05
3.44482e-06
4.11862e-06
7.28386e-06
6.10307e-06
3.92005e-05
0.00038337
2.7977e-06
2.52872e-05
3.7692e-06
2.75253e-06
1.08049e-05
0.00025547
2.53738e-06
4.40601e-05
0.000171701
8.21594e-05
7.90059e-05
0.000297071
6.71802e-05
4.4467e-05
0.000363469
1.11562e-05
6.3327e-05
0.00237866
0.000663914
0.00233183
2.73125e-05
4.96089e-06
1.46093e-05
6.70854e-06
0.000233682
6.33698e-06
4.17567e-06
7.05963e-05
1.69638e-05
0.000414735
6.78498e-05
1.48755e-05
7.70859e-05
7.83066e-06
9.15062e-06
8.81826e-06
3.50458e-05
0.000526638
1.73764e-05
0.000872303
0.000171757
9.51368e-06
0.000103165
1.14799e-05
8.47132e-06
8.07556e-05
2.5397e-06
5.81247e-05
4.44805e-06
4.76729e-06
0.000390895
5.13412e-05
3.64148e-05
1.00672e-05
4.01733e-05
8.69331e-06
0.000769891
2.15412e-05
2.20883e-05
0.000335915
1.75154e-05
0.000184846
0.000901073
2.41721e-05
2.88132e-05
2.51851e-05
1.97193e-05
0.000177594
0.000328867
2.43759e-05
0.000780868
7.92038e-05
1.86447e-05
1.05385e-05
1.41465e-05
1.09639e-05
6.54556e-06
0.00112031
4.81515e-06
0.000303793
1.46438e-05
2.74313e-05
0.000253873
0.000159828
1.62956e-05
4.80804e-05
0.000283438
2.07049e-05
0.000380305
0.000211607
2.02577e-05
7.65498e-05
4.53041e-05
0.000226873
0.000636301
1.14579e-05
2.12823e-05
0.000193145
5.6e-05
5.06915e-05
1.35477e-05
2.09672e-05
0.000657012
2.48356e-05
0.00280779
1.05672e-05
0.000967097
0.00010334
0.00071082
6.26413e-06
1.74514e-05
0.000729875
5.95226e-05
0.000257857
0.000121662
1.37736e-05
0.000136204
0.000197479
0.00031334
1.32753e-05
7.72973e-06
0.000925208
0.000279468
2.27345e-05
1.51074e-05
1.21637e-05
2.05903e-05
2.10958e-05
7.39425e-05
2.77949e-05
0.000193973
2.24326e-05
0.000134718
0.000168106
1.33147e-05
7.79208e-06
0.000240365
2.01364e-05
3.284e-05
7.39341e-05
0.000772428
5.94415e-06
0.000102231
0.000114405
0.000606599
1.60314e-05
0.000103846
1.66086e-05
1.86361e-05
1.54639e-05
5.05573e-05
5.77214e-05
7.794e-05
3.45336e-05
1.32862e-05
1.22341e-05
2.96502e-05
1.66769e-05
0.000354539
6.7263e-05
5.14896e-05
1.99892e-05
0.00027429
1.31019e-05
1.47115e-05
0.000313345
1.59569e-05
1.82127e-05
0.000527602
0.000368333
1.8632e-05
2.73093e-05
7.14309e-05
3.01917e-05
3.8685e-05
2.41401e-05
0.00115025
2.31283e-05
3.11695e-05
0.000245577
3.27435e-05
0.000896437
0.000473858
1.98375e-05
0.000602114
0.000520612
0.000114667
2.29212e-05
2.18748e-05
0.000400987
2.99397e-05
2.93199e-05
2.21925e-05
2.12378e-05
0.000135825
5.63312e-05
0.000282031
9.58645e-05
2.4683e-05
2.88622e-05
1.86704e-05
0.000271841
7.45585e-05
1.28231e-05
2.50232e-05
4.69235e-06
8.90704e-06
1.70175e-05
0.00052431
6.18418e-05
1.35689e-05
0.000253129
9.04188e-06
0.000193536
3.45849e-05
1.42108e-05
2.45867e-05
1.82951e-05
0.00122865
2.45916e-05
2.21128e-05
1.49592e-05
0.000307648
0.000105506
2.96525e-05
0.000429338
1.50183e-05
0.00027922
0.000419369
1.77659e-05
0.000208841
2.43261e-05
0.000987745
0.000933109
1.73625e-05
0.000363059
0.000155763
0.000211363
3.69987e-05
0.000329477
3.95341e-06
1.22357e-05
0.00375604
7.93293e-06
5.93569e-05
2.03433e-05
2.05662e-05
4.62419e-05
1.07663e-05
0.00113981
4.55832e-05
5.25915e-05
0.00048864
0.000791942
7.79239e-05
0.00286556
0.000289589
7.37467e-06
0.000229412
8.04637e-05
0.000256792
1.85186e-05
4.23241e-05
1.48316e-05
0.000185647
6.38755e-05
1.10449e-05
9.4589e-05
6.55349e-06
0.000377138
1.13313e-05
6.09556e-06
1.48806e-05
1.28373e-05
7.98004e-06
4.47139e-05
9.65429e-06
3.51654e-06
0.000268676
5.80215e-05
1.21983e-05
0.000476169
5.44256e-06
0.000110481
6.65884e-05
8.7193e-05
5.89553e-06
5.21001e-05
1.16967e-05
3.55684e-06
0.000395214
0.000535292
7.90531e-06
9.28683e-05
5.08928e-05
1.65783e-05
0.000528312
2.83307e-05
2.84471e-05
0.000228805
0.000571632
0.00035335
0.000129171
6.95325e-05
5.95685e-05
2.70008e-05
3.76119e-06
0.000187504
1.94784e-05
0.000749573
3.24547e-05
5.76915e-05
0.000248384
0.000832102
4.3731e-06
1.07131e-05
0.00014559
0.000211112
9.58811e-05
7.03296e-06
9.29674e-06
0.000501701
0.000572063
3.62056e-05
0.000417751
1.8784e-05
1.43122e-05
3.85488e-06
0.000291226
1.61737e-05
1.80675e-05
8.45323e-06
0.000292514
0.000195449
1.28753e-05
3.61395e-05
8.64013e-06
0.000765555
1.22544e-05
1.54564e-05
0.000134491
6.82737e-06
2.83136e-05
0.000520565
9.95333e-06
0.000108293
9.17749e-06
4.03579e-06
1.28531e-05
4.0895e-06
1.37987e-05
2.59511e-06
5.4248e-06
1.39976e-05
3.99248e-06
1.24571e-05
6.68022e-05
5.59541e-06
5.59807e-05
5.62134e-06
2.58515e-06
1.49551e-05
1.07908e-05
0.000456974
8.17668e-05
0.000483477
1.07429e-05
0.000130565
6.6156e-06
0.000487338
0.000122503
0.000104896
5.64253e-06
8.7658e-06
6.10149e-05
1.06431e-05
0.000795773
0.000239671
6.50079e-05
3.17578e-06
0.0031347
0.000396402
3.64092e-06
1.51293e-05
4.30752e-05
5.26109e-06
7.20129e-06
2.83525e-05
6.30857e-06
7.86863e-06
7.9972e-06
2.53113e-06
2.9487e-06
4.35743e-06
6.33476e-05
0.000175984
0.00039574
4.04749e-05
0.000110287
3.46933e-05
5.2811e-06
0.000229203
0.000176938
4.87146e-05
0.000381144
4.48933e-06
2.76129e-06
2.86371e-05
0.000126649
4.43761e-06
0.000254649
2.58799e-06
4.28899e-05
4.21624e-05
4.85399e-06
0.000599741
3.81915e-05
8.99899e-06
0.0019291
0.000243127
7.96103e-06
2.77094e-06
0.000223025
0.000675712
0.000256838
1.18049e-05
4.34228e-05
3.9415e-05
4.49261e-06
1.26346e-05
8.02815e-05
1.58141e-05
9.42365e-06
1.17564e-05
0.000121908
0.000417194
8.60376e-06
5.07556e-06
3.80247e-05
3.81846e-06
5.51601e-06
1.00004e-05
5.2951e-06
3.65708e-06
4.21612e-06
2.05901e-06
0.000148595
4.2248e-06
2.7596e-05
6.55039e-05
7.60303e-05
1.19837e-05
2.80397e-06
0.000204623
1.34746e-05
4.25472e-05
4.12836e-06
2.81222e-05
6.43246e-06
0.00105758
7.02241e-05
5.39032e-05
1.6845e-05
6.67835e-05
7.13034e-05
1.58322e-05
0.000575019
0.000316667
9.66393e-05
2.56565e-05
1.60447e-05
8.51209e-05
0.000496959
2.05439e-05
5.20098e-05
2.08521e-05
1.38799e-05
1.81315e-05
0.000354433
2.10739e-05
0.000958155
2.0812e-05
2.16936e-05
3.02719e-05
6.41258e-06
1.32126e-05
2.44161e-05
1.73953e-05
9.12115e-06
0.000694778
5.55939e-05
9.45585e-05
1.33271e-05
1.57785e-05
0.000389612
0.000167929
2.07613e-05
0.000505285
0.000197424
0.000352499
3.95415e-06
4.11936e-05
1.96941e-06
2.71352e-06
2.37201e-06
0.00101199
1.05105e-05
6.35363e-05
9.52483e-05
3.04252e-06
1.78988e-05
4.99149e-05
7.96706e-05
4.2448e-05
3.98944e-05
0.000455487
8.27031e-05
0.00128083
0.000149182
0.000377342
0.000639823
3.56427e-05
2.7052e-05
2.75622e-05
3.37062e-05
6.40005e-05
5.74161e-05
7.07629e-05
0.000831516
0.00011593
2.51559e-05
0.000759165
0.000987575
1.9159e-05
3.29718e-05
0.000866848
7.32599e-05
0.000100761
0.000154296
4.47737e-05
0.00017079
4.77957e-05
4.00841e-05
0.000360446
5.03719e-05
0.00104488
0.000152928
7.68512e-05
2.74161e-05
9.16174e-05
8.33335e-05
4.21276e-05
6.83786e-05
4.90659e-05
6.30385e-05
0.00022985
0.000611089
0.000157815
6.00213e-05
0.000223333
6.55769e-05
4.34255e-05
0.000475909
6.11173e-05
4.62169e-05
2.57315e-05
6.66693e-05
0.000395324
0.000268113
4.46873e-05
3.67065e-05
0.000185398
6.85281e-05
0.00101074
0.000253037
0.000413539
4.273e-05
3.75508e-05
0.00019808
0.000177671
8.21453e-05
6.00061e-05
0.000205663
4.58472e-05
4.37378e-05
0.000728142
3.7727e-05
2.59819e-05
4.29588e-05
5.68865e-05
3.51979e-05
3.10636e-05
4.94963e-05
6.02318e-05
7.8922e-05
0.000502889
6.42552e-05
0.00040714
4.58774e-05
0.000110838
4.35223e-05
0.000106138
4.95102e-05
4.44255e-05
0.000587141
6.08263e-05
0.00067107
4.91191e-05
0.000513898
8.34851e-05
2.4489e-05
8.63275e-05
4.92067e-05
0.000440746
0.000490827
5.66592e-05
2.49906e-05
4.79647e-05
0.000264759
5.29728e-05
8.6803e-05
3.56012e-05
3.95749e-05
0.000103713
4.01427e-05
0.00014819
7.1468e-05
1.87162e-05
4.59352e-05
2.95966e-05
5.21343e-05
0.00059321
0.000120885
2.19826e-05
0.000429599
2.46018e-05
0.000182764
3.92468e-05
0.0011819
0.000266544
3.34621e-05
4.79485e-05
3.23975e-05
1.99186e-05
3.89923e-05
2.37851e-05
4.24562e-05
0.000640878
0.000122863
0.000347948
0.00108028
5.62168e-05
3.08274e-05
5.2056e-05
0.000326943
0.000369195
2.19087e-05
0.00027947
0.000127838
0.000582754
4.01078e-05
0.000241078
0.000108132
0.000100611
0.00126281
3.89638e-05
0.000122133
5.07645e-05
7.99944e-05
2.6057e-05
0.000118698
0.000229134
5.61737e-05
0.000201043
4.27024e-05
2.61614e-05
0.000252057
0.000740285
1.60743e-05
0.000563418
4.24802e-05
1.91558e-05
0.000753263
0.000796569
0.000139192
0.00100382
2.22395e-05
3.42758e-05
2.23579e-05
7.84113e-05
6.07322e-05
0.00014624
2.47403e-05
3.95917e-05
2.33966e-05
0.000832253
2.17599e-05
0.000381462
0.000304857
0.000283574
0.000290398
0.00033606
0.000850736
5.93804e-05
0.00036381
2.82412e-05
2.61627e-05
1.79572e-05
2.37319e-05
0.000780258
0.00105839
4.13979e-05
0.000214219
4.8238e-05
0.000256649
1.45341e-05
1.99319e-05
2.24309e-05
3.07257e-05
3.53102e-05
4.49001e-05
2.45784e-05
1.71988e-05
7.86149e-06
2.49174e-05
0.000558399
0.000292861
4.79507e-05
0.000155024
4.31855e-05
2.61429e-05
0.000151866
3.77782e-05
0.00103877
4.08177e-05
0.000316588
0.000434211
0.000119715
0.000117631
4.13352e-05
4.72443e-05
2.98518e-05
0.000565105
0.000181279
2.42772e-05
0.000757508
0.000470217
3.63318e-05
4.7869e-05
0.000247755
0.000414168
0.000133818
0.00045374
4.46033e-05
2.34656e-05
3.97385e-05
0.000686416
5.37042e-05
0.000915544
0.000450952
0.000416707
1.53019e-05
5.7063e-05
5.25117e-05
2.22875e-05
2.33674e-06
7.6372e-05
3.79411e-05
5.58963e-05
3.34794e-05
4.6025e-05
0.000514505
0.000114673
8.61836e-05
2.42301e-05
0.000884167
0.000378769
1.9749e-05
5.19747e-05
5.52477e-05
7.34079e-05
8.23312e-05
0.000432799
5.82974e-05
4.43727e-05
4.92419e-05
3.2606e-05
0.000256152
0.000113175
0.000504414
0.000622468
0.000129086
8.91894e-05
3.8338e-05
0.000351637
0.000486987
0.000470506
4.57888e-05
0.000106264
0.000192013
2.67837e-05
0.000413882
5.21724e-05
9.64706e-06
0.000109638
0.000677581
3.46654e-05
5.87711e-05
5.75851e-05
8.32273e-05
0.000837847
0.000522897
0.000790912
0.000242682
9.98611e-05
0.000558838
3.82442e-05
4.42738e-05
0.000675628
0.000353466
0.000408319
0.000333284
0.000101927
0.000873383
0.000433389
9.47674e-05
0.000120759
3.87513e-05
0.000326786
0.00080437
3.11872e-05
2.12279e-05
1.87662e-05
4.8284e-05
0.000170207
0.00101858
0.00053477
0.000413529
0.000419015
1.54169e-05
0.00106445
0.000296267
1.90297e-05
5.90652e-05
4.55964e-05
0.000133791
0.000451138
2.91556e-05
0.00109179
0.000448173
0.000291522
0.000938371
0.000404934
0.000622498
7.33962e-05
0.000329891
0.000795573
0.00105874
9.26355e-05
0.00023387
0.000802146
0.000135905
5.8539e-05
0.000238271
3.72994e-05
3.17424e-05
2.53424e-05
0.000341966
0.000140398
5.10431e-05
2.2319e-05
0.00085511
9.45404e-05
0.000583746
2.65364e-05
4.77981e-05
4.59573e-05
2.09171e-05
0.000156431
0.00112006
1.89917e-05
9.57032e-06
7.90094e-05
1.23207e-05
1.90082e-05
8.9339e-05
0.000147041
0.000277217
0.000533994
0.000488787
6.11768e-05
0.000986305
7.82517e-05
0.000478232
0.00121073
5.83368e-05
7.56026e-05
6.49971e-05
4.52412e-05
0.000760395
3.63911e-05
0.000494265
6.40923e-05
6.36023e-05
5.4063e-05
9.20753e-05
4.53307e-05
6.63649e-05
4.81645e-05
6.94949e-05
7.07278e-05
0.000397506
4.0775e-05
7.12749e-05
3.79995e-05
4.44906e-05
0.000126655
5.30573e-05
0.000624846
5.50081e-05
4.55707e-05
1.51028e-05
0.00037064
4.39979e-05
6.43133e-05
0.00031508
5.7293e-05
4.56146e-05
5.39429e-05
0.000722646
5.57484e-05
4.53144e-05
1.60209e-05
0.000683248
0.000738207
5.48448e-06
5.56065e-05
0.000294701
7.19697e-05
0.000845692
5.38286e-05
5.60587e-05
0.000149465
5.89426e-05
4.39478e-05
3.68354e-05
0.000798812
0.000246288
6.60747e-05
9.66821e-05
4.34022e-05
0.000700774
4.24902e-05
5.24165e-05
2.32884e-05
9.07515e-05
0.0010911
0.000293812
0.000253656
3.83753e-05
3.43548e-05
0.000121419
3.56532e-05
5.17344e-05
0.000548951
3.97546e-05
3.81539e-05
0.00011498
9.37635e-05
3.35092e-05
0.000130999
1.6719e-05
0.000725747
0.000110757
0.000365105
8.69691e-05
0.000631967
8.09928e-05
0.000199736
0.000224692
0.000216151
3.84738e-05
3.67499e-05
7.16312e-05
1.91251e-05
5.57117e-05
1.28955e-05
0.00078973
0.000321037
3.03449e-05
7.76734e-05
0.000105906
4.56804e-05
1.98181e-05
0.000383985
3.84513e-05
0.000304139
4.60295e-05
6.25479e-05
0.000439486
0.000398023
8.44544e-05
8.63578e-05
4.37058e-05
0.000108329
0.000443717
6.92164e-05
9.7274e-05
0.000150878
0.000130113
2.20045e-05
4.66887e-05
0.000483336
0.000107857
0.000205294
0.000212083
0.000662697
0.000518107
6.37528e-05
0.000571723
0.000103851
0.00102088
5.24839e-05
3.73602e-05
2.63049e-05
0.000449819
5.05951e-05
4.2053e-05
0.00010898
6.71971e-05
6.99107e-05
4.18497e-05
7.42752e-05
4.46147e-05
0.000364232
0.000477922
0.000470718
0.000604963
0.000251976
5.45048e-05
6.84312e-05
0.000220336
6.27211e-05
6.99237e-05
4.59018e-05
3.76498e-05
0.000376101
4.35192e-05
0.000694894
3.89392e-05
5.14788e-05
9.22197e-05
0.000611202
4.11464e-05
5.31126e-05
4.29679e-05
6.26272e-05
0.000138095
4.50684e-05
0.000624299
0.000453221
0.000917325
6.39376e-05
5.31958e-05
5.29424e-05
7.89034e-05
7.23495e-05
9.86517e-05
5.39404e-05
4.01597e-05
0.000198716
6.11193e-05
0.000120541
5.60327e-05
0.000505336
0.000475716
2.47931e-05
5.937e-05
0.000528896
0.000374824
2.39655e-05
4.10002e-05
5.42651e-05
0.000745431
5.80865e-05
0.000420008
0.000230844
5.38195e-05
2.99043e-05
6.9042e-05
0.000500077
7.24694e-05
1.46585e-05
6.90565e-05
0.000733203
0.000117103
0.000140404
4.37114e-05
5.53352e-05
8.23683e-05
0.000587774
4.2354e-05
3.55669e-05
5.16158e-05
0.000315507
0.000675503
0.000187294
8.19411e-05
6.86538e-05
4.45317e-05
0.000364719
0.000891974
0.000118674
6.68378e-05
0.000107325
7.10149e-05
6.19727e-05
0.00101475
7.32542e-05
5.04511e-06
1.65786e-05
0.000335185
2.84853e-05
7.10797e-06
0.000105231
0.000176867
0.000201944
9.36492e-05
0.000121702
1.55762e-05
4.11926e-05
6.09511e-05
5.27685e-05
0.000355583
4.92872e-05
0.00059764
6.59833e-05
6.9126e-05
4.58396e-05
0.000215957
4.75063e-05
0.000343317
9.68898e-05
0.000189989
0.000539135
5.03106e-05
7.91695e-05
0.000109951
4.05719e-05
0.00105891
5.91447e-05
4.50329e-05
2.55386e-05
4.05686e-05
0.00036039
5.13796e-05
0.000372515
0.000104283
0.000447191
0.000439732
0.000267605
4.50405e-05
4.56562e-05
1.41442e-05
0.000194111
3.3145e-05
0.000270906
0.000237056
1.58785e-05
6.92211e-05
0.00055522
6.38268e-05
7.22963e-05
0.000105379
6.34556e-05
0.000288224
0.000127487
9.74761e-05
0.00120376
0.00021683
0.000565369
5.37159e-05
0.00017454
9.83666e-05
7.68841e-05
0.000587234
5.12175e-05
7.48535e-05
2.97142e-05
0.00110551
9.1835e-05
0.000549055
7.81569e-05
0.000103479
7.01163e-05
7.66979e-05
5.35697e-05
0.000383007
4.76143e-05
0.000999479
7.05579e-05
8.18479e-06
0.000276545
5.50692e-05
6.3859e-05
4.77848e-05
5.49658e-05
6.40831e-05
0.000501738
3.56804e-05
9.36895e-05
0.000560957
0.00061318
8.78737e-05
4.19896e-05
4.368e-05
0.000673342
2.53652e-05
4.80847e-05
1.56207e-05
2.74461e-05
0.000250616
3.6597e-05
0.000187887
0.000147883
7.09321e-05
0.000325585
4.21603e-05
0.000846406
4.85697e-05
0.000825841
2.94815e-05
7.17909e-05
0.000779223
3.01429e-05
3.02347e-05
0.000841353
5.40911e-05
7.17838e-05
0.0001042
0.000129066
0.000508754
7.88189e-05
0.0001254
0.000498236
0.000543243
0.000488915
8.9461e-05
7.55726e-05
0.000353202
0.000528961
9.54594e-05
0.000279421
0.000298234
2.48887e-05
4.30018e-05
8.81414e-05
0.000102041
0.000374195
0.000554527
0.000593104
4.06387e-05
4.52825e-05
1.80006e-05
3.59738e-05
0.000493325
0.000429298
0.000139872
1.95592e-05
0.000370075
0.000629133
3.01979e-05
0.000745275
0.00019049
3.45752e-05
4.09707e-05
4.0012e-05
7.59769e-05
4.75279e-05
6.06479e-05
0.000114923
0.000432952
0.000268313
0.000471603
4.44827e-05
9.37078e-05
3.90471e-05
7.23244e-05
5.00816e-05
6.64377e-05
4.76579e-05
9.51503e-05
4.7707e-05
0.00016125
2.38633e-05
4.77817e-05
1.41159e-05
2.31919e-05
0.000108046
3.94582e-05
3.09938e-05
0.000651467
6.5855e-05
2.84836e-05
0.00026646
6.46737e-05
0.000684981
4.53328e-05
1.8e-05
5.42899e-05
3.22521e-05
4.26383e-05
6.69985e-05
4.19924e-05
0.000509647
0.000321903
1.03654e-05
8.17575e-05
0.000708196
4.63091e-05
0.000632993
4.15989e-05
4.22368e-05
4.2492e-05
4.36695e-05
8.49296e-05
0.000310326
0.000189784
6.17972e-05
5.20035e-05
9.56836e-05
3.42243e-05
1.40099e-05
1.41929e-05
2.64645e-05
0.000951055
0.000403163
0.00053032
0.000233692
4.23206e-05
0.000998994
0.000442036
9.8888e-05
6.264e-05
3.10038e-05
9.24578e-05
3.27984e-05
0.000194724
0.000107213
8.72168e-05
0.000157056
2.1594e-05
4.96696e-05
4.47717e-05
4.30851e-05
3.23363e-05
0.0010272
0.000379667
0.000482841
6.52413e-05
3.30522e-05
0.00054845
0.000704193
8.47982e-05
4.86794e-05
0.000293158
0.000242201
0.000217032
4.78992e-05
0.000113431
3.41131e-05
7.47036e-05
1.55563e-05
5.68274e-05
3.34353e-05
3.06895e-05
3.51277e-05
4.12295e-05
4.00453e-05
0.000420595
0.000976525
0.000954823
3.20085e-05
0.000475513
0.000421191
0.000480968
2.06005e-05
4.40976e-05
6.50108e-05
4.33612e-05
0.000223329
1.40957e-05
5.26556e-05
0.00079399
0.000635531
5.12497e-05
2.99417e-05
3.32153e-05
0.00253757
5.98904e-05
7.24704e-05
0.000263082
3.77307e-05
0.000570636
7.70597e-05
0.000377882
1.66639e-05
0.000637605
9.28097e-05
0.000412666
7.03975e-05
0.000256096
6.398e-05
4.61513e-05
0.000617791
0.000641016
1.53095e-05
0.000172661
6.04635e-05
0.000117603
7.24601e-06
0.00041792
0.0010563
0.000523554
0.000293254
0.000772506
4.68384e-05
5.61586e-05
6.67068e-05
5.89099e-05
0.00129981
0.000187693
8.17013e-05
8.2414e-05
2.58749e-05
2.97875e-05
4.13534e-05
5.29338e-05
5.31265e-05
3.26142e-05
0.000457799
0.000437148
0.000119342
8.5035e-05
2.62126e-05
1.5948e-05
3.42587e-05
1.90465e-05
9.51732e-05
4.65048e-05
4.77476e-05
5.24621e-05
0.000255038
0.000691282
6.63228e-05
0.000361887
5.24312e-05
4.9895e-05
2.49805e-05
0.00044943
6.95097e-05
7.41611e-05
1.54138e-05
0.000324368
0.000116195
4.43897e-05
5.45272e-05
4.67983e-05
0.000575224
3.75535e-05
2.44147e-05
0.000397613
1.28226e-05
9.20609e-05
4.0313e-05
0.000231748
5.08167e-05
2.76738e-05
0.000570744
4.90683e-05
0.000247446
0.000464393
0.00021557
0.000502576
0.000125687
4.7048e-05
3.51141e-05
0.000388538
3.36513e-05
3.47138e-05
0.000175487
6.41769e-05
7.56898e-05
0.00104592
0.000180252
3.42617e-05
1.8383e-05
3.4536e-05
1.55627e-05
0.000633302
0.000567826
0.000673199
0.000906003
0.000352497
3.80114e-05
4.3407e-05
0.000497213
0.000572478
0.000209247
8.3323e-06
6.82041e-05
0.000229276
3.70706e-05
1.06829e-05
0.000916863
0.00022094
7.29907e-06
3.1334e-05
0.000932041
1.49995e-05
1.69433e-05
0.000232557
0.000852123
2.3511e-05
7.42183e-05
3.38594e-05
2.20365e-06
0.000802965
0.000334635
3.94282e-05
0.00104671
2.6453e-05
6.81957e-05
0.000318357
0.000341453
0.00114609
5.05875e-05
0.000294266
0.00010699
0.000824354
0.000819577
7.01779e-05
0.000144324
2.69822e-05
2.46721e-05
0.00013277
2.27191e-05
0.000130731
2.52216e-05
0.000152153
1.39364e-05
0.000423166
3.52375e-06
6.07234e-05
4.95016e-06
0.000280263
0.000393224
0.00021023
4.05164e-05
2.13506e-05
0.000609035
0.000901938
0.000265986
2.0559e-05
0.000513905
6.29941e-05
6.2907e-05
1.80471e-05
0.000746971
6.95205e-05
0.000482234
0.000128835
0.000345615
0.000751924
4.62219e-05
0.000763758
4.97406e-05
0.000161853
0.000253117
0.000846084
0.000454953
0.000248679
0.000288992
0.00091498
9.32324e-05
0.000438289
0.000832929
0.000331185
2.01351e-05
0.000612597
0.000194334
0.00179069
3.15303e-05
0.000194077
3.68019e-05
0.000126975
0.000371719
1.58151e-05
2.11839e-05
0.000906663
0.00039133
0.000399245
4.89016e-05
0.000172518
0.000797416
2.06856e-05
9.50337e-06
2.53706e-05
0.000973766
8.55301e-05
4.63875e-05
0.000495589
2.60524e-05
0.001024
0.000438103
1.82752e-05
0.000652221
4.76962e-06
0.000947489
0.000425516
0.000802793
3.00604e-05
3.45139e-05
0.000851095
0.000603176
3.78297e-05
0.00057404
2.05635e-05
0.000444405
3.19723e-05
1.80588e-05
0.000336692
0.000594137
0.000613393
0.000544286
0.000643344
0.00111134
0.000522014
0.000435505
0.000625442
0.0005679
6.63761e-06
7.86911e-05
0.000650835
1.95261e-05
0.0008498
5.18566e-05
0.000882611
0.000277409
0.000740368
0.000469841
0.000688995
0.000573169
0.00018423
0.000686014
3.09521e-05
9.00624e-05
6.16479e-05
0.000329681
9.13323e-05
0.000716207
0.000291193
0.00026717
0.000231035
0.00044126
9.50349e-05
0.000410074
0.000266034
0.000464674
0.000360806
2.2753e-05
0.000390281
2.48984e-05
4.13013e-05
0.000568464
0.000253765
0.00031376
0.000244056
0.00032176
0.000428632
7.42956e-05
0.00070442
0.00025073
0.000493302
0.000563909
0.000633761
3.56079e-05
0.000198339
2.69499e-05
0.000196059
4.35317e-05
2.58615e-05
2.47529e-05
3.20523e-05
3.04306e-05
4.99169e-05
1.16793e-05
0.000250679
2.23024e-05
0.000380841
0.000424449
0.000601457
3.65774e-05
0.000590721
0.000682891
0.000629964
0.000215324
1.47756e-05
0.000122431
0.000153305
0.000329553
0.000127517
0.000176209
3.34667e-05
6.48927e-06
1.53485e-05
6.82819e-05
2.30996e-05
0.000363248
0.00037882
0.000605466
0.000422213
0.00123498
9.78596e-05
0.000132212
0.000481404
0.000619698
3.37194e-06
0.000312986
0.000819796
0.0001891
7.86075e-05
0.000640755
0.000390713
6.81673e-05
0.000377296
2.3851e-05
0.000400834
0.000439518
3.91666e-05
0.000176964
0.000309219
0.000162393
0.000327753
2.28354e-05
8.91423e-05
5.62165e-05
5.99691e-05
0.00043184
0.000551609
0.000366769
0.000497614
6.01484e-05
0.000391951
0.000292486
0.000312962
0.000388866
8.47617e-05
5.33901e-05
0.000414313
0.000320523
4.90882e-05
0.000277069
9.58214e-05
5.54529e-05
4.61549e-05
3.97799e-05
0.000247728
0.000507145
0.000298893
0.000165379
5.97651e-05
0.000164453
0.000198971
0.00033032
0.000263412
1.81845e-05
0.000255213
0.000277789
3.91555e-05
0.000215585
4.03828e-05
0.000292626
0.000435369
0.000383506
0.000245256
0.000218934
6.08901e-05
0.0010665
0.000159208
0.000168077
4.8437e-05
0.000282206
0.000349431
0.0002306
0.000201139
4.13071e-05
0.000160275
0.000935606
0.00058445
0.000297021
1.33128e-05
0.000879372
0.000267269
0.000302879
0.000259021
5.37094e-05
0.000279838
1.81069e-05
0.00011881
0.000331763
0.0001508
3.29982e-05
0.000400905
0.000192534
0.00011878
0.000228601
0.000111012
0.000239671
4.18243e-05
0.000839147
0.000217433
2.38163e-05
0.000184591
0.000832106
0.000108846
0.000360884
2.91315e-05
0.000354433
0.000334038
2.98784e-05
4.23117e-05
0.000615162
0.000406289
0.000438547
0.000384172
3.59698e-05
0.000421053
6.28203e-05
0.000147412
0.00030308
9.50546e-05
3.11396e-05
0.00016193
0.00027205
0.000436536
0.000291201
0.000332783
0.000936853
0.000247779
0.000711424
0.000273714
0.00066279
0.000356473
8.33592e-05
0.000183595
7.75862e-06
0.00109296
7.35495e-05
0.000258299
2.09436e-05
0.00011991
8.00932e-06
4.67683e-05
2.33564e-05
4.4829e-06
0.000587896
0.000352578
3.72741e-05
0.000713152
0.000457774
5.11375e-05
3.73526e-05
0.000306424
4.25056e-05
0.000185775
4.04548e-05
0.00032606
4.04354e-05
9.8257e-05
0.000128874
0.000785181
7.49628e-05
3.79197e-05
0.000460178
0.000546312
0.000414393
0.000889952
1.76367e-05
0.000282396
0.000251317
4.28879e-05
0.000755699
4.50634e-05
4.21139e-05
0.000739856
4.29636e-06
0.000903583
7.39691e-05
6.44137e-05
4.45746e-05
0.000262959
3.32369e-05
3.12837e-05
2.14313e-05
0.000418136
0.000216837
0.000867478
5.28924e-05
2.00336e-05
0.000104195
0.000490064
0.000101803
3.09874e-05
7.01129e-05
0.000677218
2.24283e-05
0.00052734
0.000328691
4.04016e-05
0.00091579
0.000260245
0.000914463
3.89103e-05
0.00112943
0.000127949
0.00084047
0.000178241
0.00102464
0.000254075
6.17628e-05
4.00734e-05
0.000550097
2.3059e-05
0.000870051
4.64802e-05
6.58169e-05
5.94063e-05
6.95933e-05
0.00127012
2.01523e-05
1.93097e-05
0.000302375
0.000788137
7.46242e-05
0.000181746
3.35487e-05
1.48724e-05
0.000110226
0.000140251
0.000393836
0.00041123
0.000157534
5.23744e-05
7.4615e-05
1.22847e-05
0.00140663
0.000198708
0.000557623
0.00055737
1.43417e-05
0.000344359
4.34824e-05
2.58349e-05
8.84272e-06
0.000746057
1.52967e-05
3.30943e-05
3.21185e-05
0.000324028
2.44164e-05
6.55175e-05
2.22769e-05
0.000430969
0.000677171
3.52732e-05
7.90049e-06
0.00106506
6.26128e-05
5.55118e-05
2.77721e-05
0.000796391
6.1748e-05
4.51429e-05
0.00047048
0.000719744
0.000389408
0.000393924
4.22209e-05
8.31643e-05
8.84294e-05
1.13413e-05
2.08066e-05
0.00060063
2.48405e-05
4.55463e-05
0.000270658
1.64419e-05
4.95844e-05
0.000584491
8.46035e-05
2.03374e-05
3.78099e-06
0.000275293
0.000139302
7.5205e-06
2.1888e-05
2.91399e-05
0.000288779
3.09342e-05
0.000623248
7.46185e-06
4.59615e-06
1.13044e-05
4.51186e-06
0.000169461
3.44011e-06
0.000110988
0.000702162
7.06362e-05
8.24969e-05
0.000116402
8.61363e-06
0.000189518
0.000102419
4.36336e-05
0.000126476
3.53234e-05
5.04894e-05
4.61962e-05
5.26342e-05
4.22746e-05
4.49557e-05
3.60354e-05
0.000902735
9.00298e-05
5.0539e-05
0.000171971
1.80511e-05
2.0661e-05
0.000838113
4.40199e-05
4.15304e-05
0.000893082
7.60523e-05
1.04743e-05
1.80928e-05
4.48379e-05
0.000205489
9.56403e-06
0.000268967
4.48503e-05
0.000575152
7.94439e-05
2.86916e-05
4.67767e-05
0.000428861
0.000226816
2.6383e-05
0.000222467
1.37217e-05
1.96942e-05
6.17217e-05
4.05018e-05
2.09343e-05
0.00101239
3.87625e-05
4.17081e-05
4.08247e-05
0.000362022
2.75306e-05
0.000271926
2.60735e-06
0.000338281
0.000409898
0.000145162
8.67067e-05
3.9347e-05
0.000860708
0.000178543
0.000332244
7.13923e-06
1.58611e-05
1.4464e-05
1.1628e-05
2.82224e-05
4.26213e-05
2.76432e-05
1.99549e-05
0.000182579
0.000906955
4.95169e-05
0.000501977
5.12483e-05
4.07462e-05
4.71368e-05
2.57208e-06
1.31576e-05
0.000267174
1.43758e-05
6.49649e-05
4.63497e-05
1.93793e-05
9.08098e-05
1.39723e-05
2.44426e-05
0.000572432
0.000358635
0.000346113
0.000183788
0.000188787
4.66083e-05
0.000157828
0.000578824
7.6187e-05
0.000205256
0.000194691
4.16269e-05
0.0001273
0.000768255
0.000240451
3.97677e-05
3.96204e-05
6.47317e-05
0.000326949
0.000268402
6.65089e-06
0.000309345
2.05998e-05
4.60987e-05
1.20671e-05
6.37275e-05
2.19189e-05
8.43831e-05
1.61034e-05
7.60761e-05
0.00011785
0.000459252
0.000529765
4.37518e-05
6.21828e-05
6.07068e-05
5.14157e-05
0.000275184
0.000160832
0.00111382
2.11693e-05
9.74137e-05
0.000655789
0.000124825
2.62337e-05
4.56258e-05
8.36331e-05
4.4888e-05
5.72363e-05
4.47574e-05
7.15072e-05
2.77263e-05
4.06098e-05
2.57572e-05
2.29748e-05
0.000297915
0.00019983
1.38826e-05
7.064e-05
5.38269e-06
3.78458e-06
0.000156908
0.000112594
2.21314e-05
0.000270023
0.000134474
0.000570855
5.13932e-05
1.6142e-05
4.51364e-05
0.000277682
0.000442426
6.78713e-05
0.000516769
2.47817e-05
0.000955011
2.68378e-05
2.35866e-05
0.00151498
1.98733e-05
0.000349237
3.74435e-05
4.43401e-05
0.000730788
2.34041e-05
1.91693e-05
0.000875964
6.49621e-05
0.000178207
0.000788204
1.64796e-05
4.33222e-06
2.55712e-05
5.41116e-05
2.31563e-05
0.000194935
2.49691e-05
4.38501e-05
4.76442e-05
6.37696e-05
0.000270408
1.61396e-05
0.000189559
5.61446e-05