/*--------------------------------*- C++ -*----------------------------------*\
| =========                 |                                                 |
| \\      /  F ield         | OpenFOAM: The Open Source CFD Toolbox           |
|  \\    /   O peration     | Version:  2306                                  |
|   \\  /    A nd           | Website:  www.openfoam.com                      |
|    \\/     M anipulation  |                                                 |
\*---------------------------------------------------------------------------*/
FoamFile
{
    version     2.0;
    format      ascii;
    arch        "LSB;label=32;scalar=64";
    class       volScalarField;
    location    "2.08459e-06";
    object      p;
}
// * * * * * * * * * * * * * * * * * * * * * * * * * * * * * * * * * * * * * //

dimensions      [1 -1 -2 0 0 0 0];

internalField   nonuniform List<scalar> 
49294
(
221365
194077
399.118
268.49
784.113
279.306
1.20475e+06
594.546
405.825
606.922
199.25
445.808
659.224
632.959
406.086
419.715
405.52
390.996
243.663
189.075
437.101
330.968
273.442
231.751
444.735
455.059
317.555
782.821
3124.33
358.009
373.296
353.206
398.008
342.068
400.345
381.46
714.165
1046.76
355.502
187.136
392.398
390.626
316.424
5078.94
434.168
389.516
244.456
276.704
1096.57
2905.33
270.717
241.18
2900.83
15350.8
8784.8
506.385
293.669
1.22839e+06
1.38032e+06
1.33818e+06
377.211
1.3903e+06
295.474
339.942
205.352
322.782
191.526
261.831
305.254
1602.6
194.719
23331.9
350.46
294.064
327.542
316.664
473.122
370.056
305.91
663.881
523.343
477.31
205.788
248.948
481.645
443.126
445.808
337.377
363.718
327.57
201.719
20293.4
255.824
309.968
422.397
2457.47
215.906
291.209
30938.3
264.772
354.654
251.099
353.29
320.096
43530.6
1066.57
205.434
884.329
17735
251.101
266.892
432.405
302.753
255.189
360.788
229.734
261.094
3810.19
300.923
1.18765e+06
257.391
1049.62
340.693
222.394
626.485
379.975
451.014
233.602
462.559
196.144
4558.37
229.506
224.049
232.106
236.206
1.33612e+06
1.42622e+06
259.064
202.819
240.036
1.17198e+06
250.025
1.17518e+06
247.654
1.39024e+06
303.602
3680.37
315.938
355.663
308.794
327.943
23169.5
335.625
331.074
836.123
1.40409e+06
1.42795e+06
1.42706e+06
1.41531e+06
1.39443e+06
1.38665e+06
1.42988e+06
1.40407e+06
1.37414e+06
382.513
1.27084e+06
1.36654e+06
1.38936e+06
1.40344e+06
1.33536e+06
1.34248e+06
1.3077e+06
1.36336e+06
1.30881e+06
1.37326e+06
1.40288e+06
2600.35
1.38112e+06
1.17476e+06
1.42836e+06
1.32154e+06
1.35514e+06
1.39076e+06
1.35788e+06
1.35022e+06
1.39167e+06
544.181
1.38448e+06
1.39952e+06
1.40365e+06
1.36332e+06
1.36378e+06
1.35314e+06
1.27096e+06
1.35536e+06
1.3711e+06
1.36507e+06
1.19331e+06
1.40062e+06
1.38913e+06
1.37853e+06
1.35082e+06
1.41189e+06
1.39863e+06
1.33397e+06
1.38228e+06
1.40344e+06
1.40517e+06
449.783
1.36018e+06
461.206
269.19
212.924
1.3754e+06
1.33498e+06
2940.11
1.36945e+06
1.37079e+06
1.39162e+06
1.39781e+06
1.22405e+06
1.25491e+06
1.35632e+06
1.35133e+06
1.41856e+06
1.36847e+06
1.38093e+06
1.41728e+06
1.37505e+06
1.38844e+06
1.40318e+06
1.3144e+06
1.40881e+06
1.42698e+06
1.42694e+06
1.35261e+06
1.39263e+06
1.39134e+06
1.39597e+06
1.38713e+06
1.39017e+06
1.34193e+06
1.4021e+06
1.2584e+06
1.3928e+06
1.42744e+06
1.37798e+06
1.34304e+06
1.40641e+06
1.29378e+06
1.35032e+06
1.37384e+06
1.37115e+06
1.32219e+06
1.37319e+06
1.35964e+06
1.20408e+06
1.36567e+06
1.36478e+06
1.30892e+06
1.31163e+06
1.30022e+06
1.38259e+06
1.38584e+06
1.34612e+06
1.40333e+06
1.36115e+06
1.39091e+06
1.39083e+06
1.36997e+06
1.27563e+06
1.33024e+06
1.3584e+06
1.34609e+06
1.21667e+06
1.3801e+06
1.37671e+06
1.37506e+06
1.38674e+06
1.32766e+06
1.33549e+06
1.32568e+06
1.34819e+06
1.36313e+06
361.618
1.39733e+06
1.37191e+06
1.37151e+06
1.42569e+06
1.37178e+06
1.40035e+06
1.41568e+06
1.33731e+06
1.37564e+06
1.34689e+06
1.38803e+06
1.37116e+06
1.36581e+06
174650
1.21079e+06
1.26498e+06
1.31467e+06
1.35439e+06
1.11744e+06
1.32222e+06
1.12521e+06
1.14215e+06
1.30613e+06
1.23888e+06
1.20617e+06
1.1199e+06
1.16119e+06
1.30056e+06
4158.21
1.34529e+06
1.38929e+06
1.35902e+06
1.36587e+06
1.40578e+06
1.31641e+06
1.41577e+06
1.25715e+06
1.34547e+06
1.30741e+06
1.36079e+06
1.3543e+06
1.30167e+06
1.37916e+06
1.33935e+06
1.30287e+06
1.31614e+06
1.34991e+06
1.23431e+06
2381.62
191404
1.32324e+06
1.31726e+06
1.36532e+06
1.34147e+06
1.35048e+06
1.18845e+06
1.37276e+06
1.3528e+06
1.32134e+06
1.12622e+06
1.28341e+06
1.30652e+06
1.39092e+06
1.18066e+06
1.30099e+06
1.31905e+06
1.37763e+06
1.28441e+06
1.31169e+06
1.30415e+06
1.30416e+06
1.30776e+06
1.3591e+06
1.35725e+06
1.31084e+06
1.34161e+06
1.3564e+06
1.37721e+06
1.25182e+06
1.33156e+06
1.26954e+06
1.34783e+06
1.3385e+06
1.25942e+06
1.31377e+06
1.31517e+06
1.23073e+06
1.35139e+06
1.31168e+06
1.2541e+06
1.36602e+06
1.3722e+06
1.37884e+06
2490.4
1.27026e+06
1.35806e+06
1.37594e+06
1.30418e+06
1.3991e+06
1.22544e+06
3894.89
1.32691e+06
1.30667e+06
1.33894e+06
1.29747e+06
1.26474e+06
1.33038e+06
1.28127e+06
1.36554e+06
1.21146e+06
1.18472e+06
1.37015e+06
1.35922e+06
1.15963e+06
1.39122e+06
235110
1.28545e+06
221499
1.21942e+06
1.34115e+06
1.35958e+06
1.35334e+06
1.33555e+06
1.35042e+06
1.21343e+06
1.32991e+06
1.32529e+06
1.25403e+06
301975
1.25549e+06
1.14341e+06
1.34054e+06
1.1859e+06
866617
1.22291e+06
228796
1.24908e+06
1.29078e+06
1.32393e+06
1.31603e+06
1.32362e+06
1.28624e+06
1082.84
1.36627e+06
345262
1.16205e+06
235022
1.14347e+06
1.20939e+06
1.27709e+06
1.2602e+06
1.10114e+06
1.36523e+06
1.34069e+06
1.36339e+06
994130
1.18759e+06
1.26649e+06
1.33935e+06
1.37358e+06
1.37546e+06
1.31293e+06
1.38855e+06
1.3869e+06
1.33875e+06
1.32392e+06
1.31545e+06
1.35252e+06
1.29441e+06
1.39042e+06
1.3134e+06
1.3834e+06
1.35039e+06
1.32559e+06
1.30498e+06
1.11401e+06
1.14505e+06
1.28614e+06
1.357e+06
1.34301e+06
1.3672e+06
1.21123e+06
1.33327e+06
1.34139e+06
1.3414e+06
1.3194e+06
1.27969e+06
1.35237e+06
1.32121e+06
1.31688e+06
1.33382e+06
1.34835e+06
1.33686e+06
1.33107e+06
1.35069e+06
212359
1.34281e+06
1.392e+06
1.38278e+06
1.2999e+06
1.38251e+06
1.34797e+06
1.38529e+06
1.35955e+06
869.959
1.37648e+06
1.3141e+06
1.37108e+06
1.36674e+06
1.02337e+06
1.29759e+06
1.3726e+06
1.30847e+06
1.34684e+06
1.38776e+06
1.33972e+06
1.3695e+06
1.32765e+06
1.32023e+06
1.34969e+06
1.28492e+06
1.3722e+06
1.3727e+06
1.38035e+06
1.36606e+06
1.3993e+06
1.33799e+06
1.36386e+06
1.40064e+06
1.34553e+06
1.36348e+06
1.4024e+06
1.35907e+06
1.381e+06
1.39683e+06
1.33751e+06
1.20998e+06
1.37549e+06
1.3324e+06
1.37993e+06
1.35762e+06
1.33905e+06
1.34995e+06
1.40002e+06
1.22922e+06
1.34688e+06
1.38536e+06
1.33525e+06
1.32302e+06
1.38298e+06
1.36179e+06
1.34284e+06
1.31559e+06
1.33383e+06
1.18994e+06
1.26293e+06
1.34665e+06
1.33078e+06
1180.21
1.32865e+06
1.36605e+06
1.37993e+06
1.04011e+06
1.39074e+06
1.33391e+06
1.33863e+06
1.266e+06
1.3915e+06
1.37248e+06
1.34477e+06
1.32698e+06
1.40052e+06
1.3956e+06
1.34648e+06
1.34953e+06
1.33067e+06
1.38347e+06
1.38032e+06
1207.78
1.33207e+06
1.21819e+06
1177.49
1.34309e+06
1.35794e+06
1.39785e+06
1.32064e+06
1.30633e+06
1.37231e+06
1.39247e+06
1.33597e+06
1.35155e+06
1.34305e+06
15340.9
1.37757e+06
1.29333e+06
1.36821e+06
1.34241e+06
1.36679e+06
1.40417e+06
1.26567e+06
852.776
1.37822e+06
1.30056e+06
1.3745e+06
1.39303e+06
1.3911e+06
1.40852e+06
1.35611e+06
1.414e+06
1.41786e+06
1.34409e+06
1.38392e+06
1.36042e+06
1.36386e+06
1.39329e+06
1.36772e+06
1.42022e+06
1.42872e+06
1.35972e+06
1.38424e+06
1.33093e+06
1.36644e+06
1.33761e+06
1.37952e+06
1.36649e+06
1.37498e+06
924.714
1.3654e+06
1.36718e+06
1.38215e+06
1.37388e+06
1.36667e+06
1.38519e+06
1.29366e+06
1159.37
1.35267e+06
1.4262e+06
1.29987e+06
1.33883e+06
1.39083e+06
1.37611e+06
50366.8
1.39736e+06
1.38959e+06
1.38492e+06
1.40465e+06
1.40021e+06
1.40307e+06
1.41698e+06
1.4233e+06
1.38855e+06
1.37239e+06
1.35386e+06
1.33449e+06
1.29937e+06
1.35377e+06
1.39723e+06
1.40318e+06
1.3499e+06
1.36022e+06
1.38484e+06
1.33294e+06
1.41802e+06
1.42456e+06
1.40395e+06
1.3644e+06
1.4201e+06
1.31939e+06
1.42687e+06
1.39009e+06
1.37353e+06
1.4185e+06
1.33071e+06
48817.1
1.36082e+06
1.31284e+06
1.35874e+06
1.37245e+06
1.42756e+06
1.34123e+06
1.31175e+06
1.34443e+06
1.36216e+06
53491.4
51019.4
1.38713e+06
1.3506e+06
1.35619e+06
1.3459e+06
1.38829e+06
1.35286e+06
1.37809e+06
1.32851e+06
1.3792e+06
1.39196e+06
1.39469e+06
1.39429e+06
1.3799e+06
1.35761e+06
1.41627e+06
1.38444e+06
1.40094e+06
1.40408e+06
1.34814e+06
1.39861e+06
1.37578e+06
1.37371e+06
1.36342e+06
1.36056e+06
1.4237e+06
1.36704e+06
1.3411e+06
274.602
1.38612e+06
1.40438e+06
1.39705e+06
1.32492e+06
1.36707e+06
1.36072e+06
1.32748e+06
1.36442e+06
1.21911e+06
1.29599e+06
1.27751e+06
1.33143e+06
1.37738e+06
1.10539e+06
1.33588e+06
1.31387e+06
1.33039e+06
1.19394e+06
262396
1.1246e+06
1.37619e+06
1.31955e+06
1.33322e+06
1.31247e+06
1.16045e+06
1.21026e+06
1.21735e+06
1.19056e+06
1.4002e+06
1.37115e+06
1.28487e+06
1.27119e+06
1.38164e+06
1.12005e+06
189404
1.30024e+06
1.3458e+06
1.29892e+06
696406
1.35384e+06
1.32249e+06
1.26645e+06
1.06708e+06
1.33583e+06
1.38799e+06
55157.1
1.40879e+06
1.42533e+06
1.39771e+06
228.595
1.36896e+06
1.37837e+06
1.3759e+06
1.40542e+06
1.26079e+06
254525
293905
60995.8
135046
345.487
73116.2
870348
228474
364654
280019
209489
999066
298073
1.06681e+06
66379.1
112161
93003
1.28195e+06
42909.9
1.16702e+06
1.30085e+06
1.1951e+06
1.31482e+06
1.2655e+06
225516
121812
77091.8
147727
81019.9
74843.9
192437
51337.9
78461.9
75504.1
1.00825e+06
142414
54176.3
239282
43243.5
122001
115581
91680.5
73449.3
86015.4
148380
336.077
58059.2
135935
1.35053e+06
99547.7
125582
1.05807e+06
59831.2
52600.9
374551
47724.5
519938
213386
75438.4
216189
136354
94632.9
1.10987e+06
50258.9
1.05993e+06
213542
179056
226754
2023.84
334226
88474.7
247523
84049.5
185804
849037
168745
1.2662e+06
158953
306777
361266
149797
124454
137636
36609
241.49
59416.4
60038.8
154893
214659
248802
56830.6
83806.1
32311.8
231054
107072
255263
172151
695.153
45783.2
1.37866e+06
130412
78292.4
1.33229e+06
113635
137145
1.14154e+06
99209.8
948319
146039
226568
205938
220165
216662
30043.1
99997
46563.8
1.18239e+06
192938
300042
234152
74892.8
43876.4
1.24479e+06
108353
1.29074e+06
322149
33496.3
1.15821e+06
1.16915e+06
1.06341e+06
137547
232136
1.28411e+06
271202
1.17195e+06
109972
1.25432e+06
116142
218331
1.12536e+06
67597.4
207943
53167.1
53235.5
75113.5
1.19773e+06
60365.7
132318
1.03894e+06
211188
1.12601e+06
40631.6
265271
1.03805e+06
183197
169045
73254.1
1.36558e+06
1.24288e+06
1.35634e+06
1.32443e+06
110247
122022
1.23223e+06
1.23771e+06
1.34315e+06
1.3259e+06
1.35788e+06
1.31725e+06
146907
1.28944e+06
968965
1.2224e+06
1.32441e+06
755161
1.19331e+06
45766.9
1.18425e+06
1.35717e+06
91034.8
1.21868e+06
1.24797e+06
31048.2
1.16858e+06
1.22419e+06
1.20898e+06
1.34389e+06
1.34041e+06
1.11673e+06
1.34477e+06
277356
1.17586e+06
266966
224401
1.13976e+06
1.25412e+06
1.28908e+06
302013
1.24276e+06
560496
24476.1
1.26455e+06
30204.4
301220
1.33337e+06
1.27402e+06
1.18226e+06
1.01358e+06
218890
170995
1.11604e+06
1.32033e+06
1.36997e+06
1.24914e+06
44595
1.34188e+06
241403
181749
189749
1.07e+06
477905
1.30073e+06
560929
119639
2157.06
1.08346e+06
219762
5273.85
164938
31286
1.1948e+06
907542
296076
1.23374e+06
235745
1.31814e+06
233166
208316
123708
113132
1.17042e+06
91773.7
184148
1.16344e+06
249434
96950.6
224092
1.13702e+06
423132
697628
1.31155e+06
221742
189428
1.16714e+06
1.39288e+06
306753
257319
93417.5
221863
289302
46100.5
41217.2
1.37057e+06
264.203
286.462
233.174
334.173
30275.1
461.336
11993.4
264.529
281.925
349.611
28285
352.45
1.40493e+06
311.06
232.624
285.553
369.445
288.572
232.867
27137.7
319.964
821.357
36400.6
270865
433.189
1.34398e+06
3220.76
1.33494e+06
34072.6
1.36482e+06
4049.25
366.165
408.237
242.312
177.282
1.38066e+06
220.666
264.887
213.296
252.744
193.512
971.223
16177
325.328
398.38
84897.8
293.878
1507.97
340.629
786.495
314.824
42422.2
3397.82
43001.2
236.334
320.226
16353.6
1.30862e+06
554.415
40250.2
12574.6
209.314
1340.91
2347.91
2492.67
402.385
241.794
1007.69
2238.76
30237.5
4228.18
1601.38
254.756
207.699
216.482
995.659
848.396
263.33
856.311
267.686
357.574
432.345
252.164
1105.78
309.547
450.489
365.167
2028.6
49039.7
286.365
371.495
4489.05
2941.03
284.24
3376.58
458.381
1001.43
263.553
219.106
400.323
1.13033e+06
208715
332.704
1.20681e+06
379.725
410.483
720.03
727.066
66170.5
1.34575e+06
2236.7
290.907
1026.03
800.045
1.06283e+06
1.30882e+06
33108.9
211.311
250.18
1875.58
1.11085e+06
63999.5
78817.8
133610
60037.5
112036
250780
58702.6
55617.2
48954.8
43516.4
59565.2
15342.2
83538.9
24211.1
39790.8
83226.6
283.85
62357.6
49786.1
58766.7
244.411
407.443
40960.9
81464.6
98464
114515
1.27188e+06
207582
871.923
47504.4
360.81
111985
61379.7
115201
109763
25189.1
227205
1.34229e+06
64235.2
189971
1.37875e+06
78235.2
60347.5
49717.3
222.353
80731.7
90674.5
181166
284457
134427
260981
1.31971e+06
227.941
82936.6
41661.9
107606
134495
30063.2
53742
1060.2
51399.6
286.041
28876.1
1679.26
86537.2
1817.61
1518.67
8469.14
131996
930.172
209131
193.587
376.8
368.847
40021.8
433.012
1.26874e+06
237.034
46388.4
2359.08
1757
233.387
175.46
878.345
492.393
243858
226900
53388.3
85945.7
1173.13
151559
360.616
1181.29
17388.9
7614.69
53348.9
40984.9
137842
1.29239e+06
133358
9832.14
69423.8
150211
75674.3
104637
519.825
48831.8
201.436
466.941
35529.8
1304.41
56807.7
2526.78
474.469
1.36833e+06
1191.06
63794
416.397
1175.1
74536.9
393.874
277.05
322.143
52009.2
324.817
45392.2
234.9
98468.2
29278.2
1.30619e+06
1.3228e+06
20678.6
95177
1165.41
38167.9
108228
130599
51874.6
68981.2
49924.9
1011.35
96358.5
622.651
580.363
74617
92629.9
370.432
64299.9
71626.2
95333.5
29701.3
106032
569158
84424.7
65232.8
54833.3
192.539
120648
113635
187337
135486
57380.2
354.434
29348.2
193874
260.711
227.983
127443
92095.5
333915
51555.5
78423.8
40336.1
93376.4
3912.65
72105.3
74499.2
181717
75016.8
144574
356.547
1.23546e+06
145905
50595.2
237.822
409659
152277
45662
217510
145606
46926.3
101163
155902
283.073
71749.4
404796
53193.5
1.34069e+06
70138.8
851595
59191.7
279027
50401.3
94294.3
49944.5
177206
173115
801307
108572
141533
1.32565e+06
1.34669e+06
79331.9
38454
188524
70185.9
1.32422e+06
20227.8
58008
44390.2
48629.9
122503
480594
1.36971e+06
1.39287e+06
1.30194e+06
1.3373e+06
1.17937e+06
1.39814e+06
45552.3
1.35152e+06
30057.5
1.36726e+06
199.966
1.34015e+06
1.25574e+06
80561.7
280.995
78947
76191.2
264.352
48589.8
41526.1
435.184
1.11977e+06
173402
251135
39332
83157.7
548.973
64859.8
46165.9
42121.6
185277
1.18846e+06
112461
45652.1
1.14624e+06
1.00464e+06
61833.6
38298.1
102732
1.34971e+06
84427.2
193543
1.3532e+06
53181.5
61654
1.35964e+06
1.05657e+06
949.063
397.65
66198.3
1.29832e+06
66407.4
50229.5
433.544
68845
78600
312.695
235.223
41463.9
50412.1
206.96
223107
52388.9
99307.7
99429.3
312.588
51975.8
219648
116000
925815
2044.42
804382
101336
119448
149885
175003
84404.5
16463
188488
60909.7
94451.6
379335
219044
1.37994e+06
207105
672936
150785
101933
45292.4
77058.3
383.822
89023
240.111
61382.5
221837
28976.7
102529
42432.5
511.804
1788.85
125809
978.815
305.671
96221.3
1.21701e+06
136797
67399.2
42826.4
181809
956864
247.524
62441.6
219.356
3857.25
29422
756.849
10035.8
13668.8
409153
236783
65560.2
4160.17
432.249
693.201
47465.9
618.808
253.368
260.3
281.513
45673.5
39712.2
626.631
333.717
41982.7
317.615
863.393
2255.08
190.61
54133.6
854.207
55403.6
263.734
55526.6
299.56
38358.4
1492.64
504.291
347.864
1067.98
186693
3936.3
59597
125527
27476.8
93044.2
306060
166212
167311
61126.2
1.06155e+06
78498.4
42186.7
166939
109488
302.695
1.32724e+06
2531.09
51302
189034
380.257
96427.2
884.816
57001.4
46512.2
108876
55925
1.25778e+06
90501.9
1.35357e+06
611.148
208320
5541.16
6541.07
61407.2
115479
1946.88
1725.46
271.461
1.32216e+06
153149
1.3294e+06
187485
33853.8
215842
143185
564.254
316.46
380.221
1.39286e+06
40096.5
252.659
143792
1620.56
171845
58703.4
119028
84166.2
43287.7
61403.7
21313.8
102460
766.789
71254.4
4640.34
799.02
806.359
946.052
371.059
379.447
353.477
36228.9
487.691
321.7
780.944
395.636
44636.1
1621.26
1039.78
253357
192.076
38291.8
51836.9
57426.6
385077
167535
63872.5
134254
1221.33
474.789
1027.08
85146.5
72283.2
1261.43
118002
217.244
1407.64
51506.4
226.245
1038.86
41764.1
182.683
40646
1.00786e+06
45896.2
1501.54
68577.6
367.433
8078.2
160154
12047.3
86872.5
45151.3
355821
327.786
23119.9
2291.33
366.082
364.726
1596.47
1650.17
443.677
8349.95
50429.4
373.971
306.047
218.543
77688.3
119010
19340.9
798892
1.30087e+06
98961.3
133746
192228
4740.12
136394
44190.9
1057.7
1190.9
1.31523e+06
42824.1
255.463
61844.9
248.775
49150.7
14474.4
54174.1
2184.94
1124.58
453.177
188.771
60970.4
1.3987e+06
70441.5
230.924
1.31878e+06
72477.9
466.291
18751.2
92564.8
70411.2
45816
374.131
47639.9
131842
6695.23
3291.88
1400.87
30298.4
8700.93
7811.18
3391.69
889.596
407.954
287.757
10922.9
7001.34
293.028
248873
1.31375e+06
13366.8
20478.6
34542.2
56742.6
702.241
572.768
81461.1
384.785
1.38037e+06
81389.1
5994.18
1831.75
283.388
225.604
981.475
1544.52
135478
238.441
175057
169.279
832.077
3175.23
7447.38
67580.3
556.036
41934.8
254.942
562.748
21718
1975.23
409.303
183526
374.768
1493.56
131373
64706
691.952
212120
31919.5
393.66
1894.71
593.337
1.35581e+06
11258.7
1.36453e+06
499.816
36966.7
169.192
1140.38
156.882
226.463
263.52
84258
537.886
226.111
675.554
190.432
320.342
843.243
296.763
347.832
1.40203e+06
1.13465e+06
1050.03
48933.2
1.38836e+06
320.077
65231.1
1.40083e+06
10028.5
366.873
251.365
1099.18
466.138
331.219
317.982
300.956
236.548
1.40465e+06
1.28707e+06
493.194
1.32209e+06
218.365
1.39573e+06
193.008
343.484
252.998
230.089
294.122
284589
278.771
294.131
246.848
49907.5
392.222
1.13444e+06
1.07539e+06
817.367
181.39
212.669
1.27735e+06
341.152
710.862
305.061
1.39901e+06
4607.58
1.41428e+06
382.71
274.218
436.09
239.805
136.387
806.546
216.264
3443.2
243.929
264.711
480.481
277.682
472.747
253.001
358.579
338.628
2395.57
469.983
396.86
210.22
221.461
271.364
411.843
1.34992e+06
245.311
245.973
1.36784e+06
404.983
185.211
190.677
355.487
346.69
274.687
2138.82
269.499
561.398
1.3129e+06
186.531
529.082
1.35262e+06
371.203
310.549
1.34001e+06
1.26324e+06
319.194
1.32172e+06
254.751
292.408
1.35446e+06
206.098
1.32071e+06
1.3718e+06
1.39999e+06
245.53
344.208
946.077
284.443
1.37456e+06
200.793
271.892
1.20302e+06
518136
1.41537e+06
1.27205e+06
315.705
212.594
553.5
499.173
212.24
307.717
11459.1
259.048
1.36836e+06
321.503
666.94
1.36075e+06
270.353
269.093
264.788
304.076
264.18
212.327
310.083
262.932
279.917
277.208
1.40175e+06
265.255
216.347
198.649
287.471
317.186
298.702
308.451
209.88
323.641
296.47
257.256
226.267
271.535
1656.07
1149.81
191.949
231.232
373.624
254.943
272.5
282.449
374.667
334.148
1.36567e+06
373.002
319.737
340.559
388.715
1713.24
399.506
235.473
223.819
286.623
423.313
426.158
313.843
275.491
475.264
278.713
227.031
3226.4
276.211
310.334
948.487
3648.44
297.045
154.656
508.15
272.543
1911.78
546.485
277.417
552.272
84574
682.37
344.308
357.555
392.967
334.421
258.142
230.655
259.139
245.905
296.567
354.711
808.563
439.531
373.522
436.076
383.648
521.355
252.824
1.38532e+06
803.162
315.694
400.864
431.243
410.344
233.566
365.729
271.127
184.721
46728.7
327.327
278.955
1.39517e+06
328.733
307.349
432.152
442.716
636.852
355.688
523.013
384.526
155.18
235.5
392.228
536.055
508.655
466.218
395.768
434.096
870.576
210.585
342.305
314.896
408.509
327.431
395.7
314.055
459.644
266.292
496.532
505.027
385.676
524.422
308.358
435.319
482.509
419.722
404.687
450.384
354.08
293.853
507.553
522.835
410.381
509.855
408.846
526.581
512.737
486.298
258.878
534.411
422.896
453.065
517.618
406.901
477.04
432.922
448.65
259.851
229.775
334.414
522.068
525.241
255.893
297.264
375.628
228.364
458.879
451.994
526.668
544.398
296.547
536.51
248.538
740.3
335.472
710.57
244.424
490.786
481.705
430.595
506.4
463.674
620.061
5390.85
452.535
524.89
452.335
325.466
459.5
408.386
381.9
394.229
331.097
537.019
235.082
399.632
999.946
322.77
408.787
417.39
340.656
3018.2
400.091
390.322
22984.1
152.996
738.417
316.99
333.55
266.446
4303.15
340.006
281.53
356.856
262.785
368.833
500.746
310.058
899.484
417.99
433.263
413.931
243.308
261.911
233.051
353.243
249.179
355.767
334.642
1648.45
1.40176e+06
240.522
333.38
250959
170.316
400.316
1.39868e+06
1.285e+06
3262.08
1.41509e+06
267.402
382.187
35708.2
234.516
294.555
3127.5
303.789
297.007
236.818
463.242
173.623
285.594
3674.53
4575.05
344.097
375.729
456.737
216.396
62807.1
288.26
271.404
223.022
220.374
231.118
241.889
1051.8
215.467
1.37785e+06
493.641
275.18
1.38753e+06
504.768
1.37421e+06
704.176
222.22
1.30148e+06
1.05137e+06
449.637
148.028
269.258
2352.16
268.463
334.078
213.81
381.491
275.764
269.141
6573.29
14020
205.516
1.39365e+06
268.089
247.246
216.764
331.236
237.887
262.912
270.219
240.873
1366.12
282.779
291.095
648.353
362.189
338.11
177.4
1.32107e+06
1.15158e+06
1.21827e+06
109508
344.234
1.16815e+06
153071
790152
1.2142e+06
1.30572e+06
74332
239.479
887.303
363.614
407.91
452.415
318.474
382.745
375.583
323.973
499.508
287.669
422.313
675.57
278.79
1.32677e+06
1.32502e+06
1.30373e+06
1.33638e+06
1.27063e+06
147022
1.18039e+06
1.37519e+06
886585
584.457
548.73
458.669
372.329
599.777
313.4
366.841
2275.77
577.767
197.688
1.37623e+06
615946
77019.7
227986
1.11541e+06
773054
55232.9
79315.4
292.186
150691
297570
113333
357079
1.37499e+06
1.35536e+06
1.38028e+06
165.786
1392.4
322.91
314.886
348.24
1607.77
384.217
305.185
441.421
1.32157e+06
1.40302e+06
311.477
1.32482e+06
1.39787e+06
1.27645e+06
1.39398e+06
427421
238220
1.31417e+06
1.38206e+06
1.40532e+06
1.36648e+06
1.38945e+06
1.34764e+06
1.40634e+06
371050
283.395
45078.9
28614
136798
911.281
251.675
52494.9
141505
1.22863e+06
307600
96276.4
44045.5
71910.9
87384.2
121690
522.831
254.485
524.588
1.38228e+06
1.37188e+06
1.19752e+06
1.19055e+06
290471
87290.3
189982
1.27288e+06
48096.6
1.36273e+06
1.35032e+06
296.267
1.35123e+06
1.37361e+06
82871.6
932180
1.26264e+06
40262.7
1.0226e+06
8406.47
316.365
304925
1.04423e+06
1.06358e+06
1.35308e+06
1.34298e+06
301.677
24719.2
1598.3
349.736
475.936
355.02
301.727
350.158
138.95
298.559
1.42317e+06
305.575
350.517
4141.02
63915
61745.3
370.959
500.382
377.806
1.40408e+06
1.33605e+06
1.34839e+06
709.451
577.206
547.293
620.32
1.20093e+06
1.3319e+06
1.26988e+06
244241
960499
123288
185117
539.353
1.42835e+06
1.34969e+06
1.34327e+06
1.36858e+06
1.39337e+06
242193
1.21729e+06
1.27333e+06
1036.05
1.07199e+06
283.032
411.975
365.353
216.176
106533
124348
553.154
299.434
137990
1.34671e+06
403.253
326.298
382.47
223.679
265.915
191.168
33322.8
219.235
432.935
544.179
1.40398e+06
397.558
540
195548
1.38607e+06
1.35894e+06
727.214
4830.88
367.531
64743.1
7485.35
1.33467e+06
88374.3
63535.9
72084.4
70110.7
1.36545e+06
477.815
414.936
1.31551e+06
1.13612e+06
191165
323.121
533.43
1489.22
60318.2
1.34449e+06
21629.3
89810.5
45379.4
49484.9
167.035
246.439
537.301
199.811
392.005
1.34385e+06
1.37712e+06
1.36183e+06
1.3869e+06
1.41523e+06
2033.22
253.426
403.801
1.15831e+06
184.065
230.92
67113.8
737.592
116058
25285.1
1020.7
583.574
76059.5
587.759
620.267
479.176
1.21878e+06
1.31083e+06
2855.38
1.23306e+06
767376
447.856
235.676
1.32296e+06
2424.33
219.953
293.872
1.34662e+06
263.973
1.39374e+06
1.41622e+06
1.04835e+06
1.28951e+06
1.29684e+06
1.34019e+06
1.11324e+06
133327
396.195
430.74
511.504
551.732
306.901
517.716
1.36865e+06
1.38661e+06
1.39118e+06
434.616
413.212
1380.43
3546.23
352.796
4541.46
441.772
220.933
246.068
566.552
152.172
397.137
360.164
364.809
4246.8
114609
233254
80507.3
1.17489e+06
1.24247e+06
1.13434e+06
229764
329.021
233.984
1.33884e+06
228365
1.26237e+06
115626
38087.2
2000.3
238.385
536.418
255.534
410.913
676.972
452.072
427.24
1.31958e+06
1.39167e+06
215.499
5202.09
214.044
235.601
534.947
3720.5
246.597
519.73
518.971
464.269
184.823
462.257
5084.74
624.439
748.069
500.081
3366.88
49408.8
347442
5347.24
194544
1.3255e+06
111562
1.37e+06
249.318
5058.07
101896
70440.9
53060.1
82915.1
52171.8
43151
53511
286513
54091.8
78083.6
1.37791e+06
1.34613e+06
1.37961e+06
1.27688e+06
12231.2
5294.9
428.234
45925
1.30347e+06
474.266
401.566
486.95
258.236
1.04003e+06
1.3962e+06
94247.5
46238.7
198389
201523
542.206
162.916
417.363
1.2965e+06
57348.3
91599.1
22411.7
499.804
1.38889e+06
1.34331e+06
312.087
282.02
290.66
229.08
304.905
1.33589e+06
21065.6
1.32109e+06
444.236
1092
222.962
264.308
1.13869e+06
280.833
16308.9
1.37846e+06
811453
189506
1.17905e+06
325715
385647
1.32407e+06
387.145
299.736
666.98
1.21042e+06
418.097
684.327
478.714
537.748
407.168
511.12
1.38987e+06
264.83
1.32818e+06
169853
288206
216.294
375.187
219.468
329.875
172275
66872
39200.4
108181
58109.9
90850.1
69940.4
1332.51
206.649
466.673
9830.88
200.868
1089.78
239.504
152.794
1.39175e+06
1.33127e+06
359.823
295.792
311.885
190.352
1.32661e+06
1.39208e+06
1.37126e+06
510.032
564.818
291.791
179.752
59232.8
59301.3
71093.9
1.20719e+06
349242
1.37201e+06
394.318
221.816
513.971
1.38697e+06
300.803
328.14
32197.8
48601.4
1.36756e+06
98017.8
151383
60780.6
46959.2
47100.1
1.30557e+06
30761
177826
88306.2
43399
232.971
300617
101665
113482
72354.4
89356.4
385.787
1345.98
372.186
136.392
691.337
276.232
115933
1.39059e+06
1.06667e+06
1.31119e+06
1.05075e+06
138313
244045
200361
185913
181622
262850
1.32846e+06
47575.6
62017.6
1.29998e+06
261151
1.35562e+06
111254
140148
237120
109429
139743
45239.6
1.32347e+06
1.28234e+06
1.33566e+06
1.21106e+06
92642.2
1.40769e+06
159.113
1873.72
37848.2
231.441
2471.51
346.223
126362
337.114
296.821
3313.76
251.339
360.12
1.38983e+06
1.00768e+06
207017
971265
1.31479e+06
1.24143e+06
218586
55360.8
100334
93699.1
862.952
284.697
413.015
510.44
259.224
371.759
539.351
521.853
837.118
287.894
834.472
3894.34
539.889
834.278
689.505
1.23976e+06
1.18826e+06
1.21629e+06
42925.4
1.32545e+06
1.25467e+06
1.28757e+06
1.3259e+06
1.3056e+06
4208.98
1520.86
1.28769e+06
1.36514e+06
1.30955e+06
107608
1.31139e+06
3701.43
271.593
35415.1
348.741
342.786
447.387
394.535
309.47
58799.3
238844
80710.2
213767
82766.7
380.503
280.224
1.35361e+06
1030.32
1.3496e+06
58955.3
111015
1.35646e+06
298.243
1187.41
272.439
313.749
50642.5
1.39997e+06
117005
536.631
1.34437e+06
263.075
966.678
1.42051e+06
1.38938e+06
235.941
271.664
1.36377e+06
1.37354e+06
72434.4
285.28
260306
10695
350.802
564.905
179.373
1225.71
77313
44866.1
70627.2
1.25313e+06
403.571
1.32776e+06
70266.8
1.34039e+06
555.856
608.412
61202.2
1660.52
1.06827e+06
80432.1
1.2926e+06
1.1934e+06
758383
1.23889e+06
1.20622e+06
645592
312.95
270.733
234.269
1.16243e+06
135535
244081
1.32585e+06
125876
251204
210725
441.843
475.799
166421
307.235
560.358
390.434
122198
71468.8
39388.2
246.036
1523.48
1.30844e+06
271.939
3158.37
905300
158542
1.09325e+06
6705.52
11796.1
452.846
478.18
527.037
2044.96
286.97
821.263
80330.3
1.32081e+06
949366
1.32812e+06
4273.14
300.459
397.695
646.271
8041.73
545.902
477.512
15985.9
621.526
1.33488e+06
48807.8
1.23882e+06
1.33011e+06
255.226
309.158
2578.71
500.489
955.351
222.843
226.795
6017.22
1.33424e+06
97954.5
155358
1.36266e+06
316.391
1.35786e+06
311.892
163.648
318.61
154161
222595
1.21353e+06
216988
160.851
266.411
470.081
946.958
1.35752e+06
1.37166e+06
783.784
396.67
301.366
20440.5
1.04342e+06
311.627
1.11446e+06
39296.9
1.34391e+06
117455
298.119
277.655
255.355
652.531
536.784
1387.02
364.214
49138.5
3611.16
259.353
295.614
1718.41
460.933
6305.79
527.364
592.613
2005.5
583.534
448.013
1.35667e+06
417.263
170.432
203.709
1.3159e+06
1.32806e+06
1.34957e+06
137.039
417.955
158.367
235.086
251669
1.34801e+06
1.34571e+06
996498
239.712
410.604
416.646
84702.4
387.543
74549.7
1.4202e+06
301.12
640.39
4962.17
429.142
403.442
761.749
1.34962e+06
380.608
1.08952e+06
202618
12442.1
1.29666e+06
83531.2
378247
62514.2
172174
66018
13330.3
13103.6
13067.5
46365
77667.4
46888.8
107612
774810
1.18196e+06
81355
254.471
171099
101532
139557
91605.3
126499
1.29384e+06
15122.9
2718.6
435.117
68634.6
1.3638e+06
205.997
949.617
224.592
443.307
15912.9
410.856
718.288
1.34249e+06
757.91
195.755
209.49
373.272
250.65
1083.64
95102
1.17075e+06
1.14465e+06
1.38044e+06
1.34981e+06
1.39401e+06
1.38953e+06
294.97
735.782
81216.2
107476
1.23091e+06
1.25672e+06
1.35562e+06
1.34065e+06
1.36003e+06
461.931
1.42642e+06
234.808
273.001
84475.1
1.25208e+06
39138.1
70103.6
16837.8
58994.6
494.607
559.094
532.487
4949.1
383.101
304.857
540.346
270.554
76252.8
391.853
304.582
233.476
242.248
357.272
249.967
67672.2
1.38226e+06
51373.5
40657.8
67108.2
107220
1126.04
115466
1.34611e+06
1.33071e+06
1.39967e+06
1.34398e+06
1.3878e+06
1.30895e+06
258888
1.33377e+06
95745.3
980.021
253.414
935.838
158.327
359.752
159556
470.107
934201
400.68
1.04293e+06
893.256
208.527
265.047
202.79
224.071
226791
213366
842760
350.04
552.577
522.522
3276.24
459.531
11726
30651.7
183.495
1442.41
1.32932e+06
1.31788e+06
820.525
1.38142e+06
226.509
228.302
324.906
1.30615e+06
1.32427e+06
408.826
59110.5
227991
52472.4
15748.6
48405.1
382.987
302.328
399.721
8734.13
244.483
380.441
375.771
302.469
418.42
1.37605e+06
1.40546e+06
1778.37
1.31893e+06
908.462
1.31958e+06
1.31554e+06
256.166
1.23401e+06
458.537
197.592
1.19881e+06
1.01814e+06
58107.6
1.17238e+06
212796
1.34094e+06
170126
254.209
1.38965e+06
37643
2907.18
605.181
256.683
318.695
1.28736e+06
638.481
524.71
3909.7
6108.02
211.49
131912
4806.59
449.492
286.723
488.03
1.11413e+06
1.37061e+06
1.3651e+06
51668.2
239244
479.135
1.33988e+06
58003.6
153812
41007.9
91456
46907.1
44320.8
1.29456e+06
4202.98
62247.5
1.37193e+06
1304.8
266.724
161.633
482259
1.19856e+06
697223
361.24
1.39668e+06
1.34428e+06
1.36621e+06
331.434
257.546
234.731
138718
1.18284e+06
167355
81136.7
89525
47861.6
73321.8
2245.61
1.39381e+06
1.36045e+06
39913.6
109590
456.161
1.37212e+06
4564.8
1.24507e+06
231982
328.427
181.087
1.38924e+06
1.26772e+06
1.3313e+06
1.23731e+06
1.41766e+06
1.2693e+06
1.4284e+06
1.39273e+06
1.34922e+06
1.32092e+06
618.037
319505
1534.93
254359
249.948
123.44
753.163
277.356
367.184
1.33141e+06
1.38279e+06
41895.4
127163
1.1561e+06
54139.9
72220.1
110623
1.11005e+06
471289
962182