/*--------------------------------*- C++ -*----------------------------------*\
| =========                 |                                                 |
| \\      /  F ield         | OpenFOAM: The Open Source CFD Toolbox           |
|  \\    /   O peration     | Version:  2306                                  |
|   \\  /    A nd           | Website:  www.openfoam.com                      |
|    \\/     M anipulation  |                                                 |
\*---------------------------------------------------------------------------*/
FoamFile
{
    version     2.0;
    format      ascii;
    arch        "LSB;label=32;scalar=64";
    class       volScalarField;
    location    "2.08459e-06";
    object      rho;
}
// * * * * * * * * * * * * * * * * * * * * * * * * * * * * * * * * * * * * * //

dimensions      [1 -3 0 0 0 0 0];

internalField   nonuniform List<scalar> 
49294
(
0.24086
0.216926
0.00036632
0.000347645
0.00192973
0.00027418
0.885429
0.00283196
0.000358409
0.000508018
0.000278841
0.000385851
0.000536437
0.00107539
0.000360729
0.000366359
0.00036778
0.000386161
0.000220167
0.000722689
0.000376092
0.000299491
0.000254864
0.000206594
0.000384175
0.00039227
0.000296446
0.000703838
0.00684743
0.000462241
0.000338552
0.000323929
0.000765083
0.000314111
0.000421412
0.000344059
0.00222258
0.000846169
0.000326983
0.000206345
0.000360589
0.000348442
0.000360126
0.0152169
0.00037884
0.000345069
0.000248525
0.000257633
0.00458509
0.00433072
0.000315451
0.000235853
0.00971528
0.0332656
0.0160411
0.000495764
0.000268532
0.910539
1.075
1.05128
0.00036229
1.07891
0.000264322
0.000340909
0.000966336
0.000288346
0.000172894
0.00024168
0.000299292
0.00145503
0.000173654
0.0482452
0.000475015
0.000268872
0.000300265
0.00028793
0.000422433
0.000334435
0.000283461
0.000641405
0.000435043
0.000472046
0.0002082
0.000304471
0.000398645
0.00038375
0.000386707
0.000322454
0.000325964
0.000294224
0.000185519
0.0375111
0.000369984
0.000440065
0.000415024
0.0039956
0.000199933
0.000274778
0.0455142
0.000246981
0.000318782
0.000242031
0.000472374
0.000297149
0.0744339
0.00299973
0.000192613
0.000865246
0.0358991
0.000235811
0.000242806
0.00198498
0.000284965
0.000235906
0.00032304
0.000212683
0.000246987
0.0119883
0.000283791
0.871721
0.000235823
0.00154541
0.00159838
0.0011101
0.000685603
0.00188361
0.000395301
0.000214226
0.000395226
0.000195201
0.00702083
0.0002147
0.000218636
0.00021403
0.000808117
1.00714
1.13367
0.000237184
0.000188614
0.000224048
0.860374
0.000228828
0.864486
0.00022734
1.07967
0.000365844
0.00713298
0.000339042
0.000327729
0.000289731
0.00030612
0.0430986
0.000311512
0.000308661
0.00352654
1.12224
1.13509
1.13381
1.12217
1.10142
1.09788
1.13687
1.12283
1.07402
0.000343453
0.937643
1.06251
1.10398
1.11741
1.02165
1.05909
1.05349
1.09818
0.973582
1.09282
1.10322
0.00901087
1.10014
0.869299
1.13599
1.03455
1.0719
1.11185
1.09437
1.02645
1.10735
0.000441042
1.07426
1.11784
1.10127
1.04383
1.08879
1.06425
0.94048
1.03694
1.0628
1.09475
0.882168
1.11408
1.07692
1.10665
1.0805
1.12247
1.11834
1.05324
1.07731
1.10679
1.1226
0.00038761
1.09436
0.000413822
0.000270743
0.000198327
1.10628
1.07774
0.00668441
1.08352
1.06519
1.11552
1.10004
0.906131
0.923289
1.05302
1.07576
1.12473
1.09802
1.11078
1.12344
1.05146
1.11628
1.1176
1.06057
1.12603
1.13574
1.13469
1.0332
1.10063
1.1022
1.09944
1.09068
1.11115
1.07815
1.12161
0.924921
1.10605
1.1341
1.06546
1.05233
1.12396
0.963968
1.08083
1.10207
1.08484
1.00527
1.09079
1.06381
0.891002
1.04218
1.09303
1.05667
1.00864
1.04731
1.1111
1.09339
1.01356
1.10836
1.0972
1.10543
1.10543
1.07004
0.936808
1.033
1.04924
1.0214
0.894978
1.0682
1.07363
1.07171
1.10439
1.06312
1.01226
1.06982
1.07846
1.05151
0.000676617
1.10885
1.073
1.0851
1.13505
1.08887
1.11204
1.12518
1.07935
1.0783
1.03315
1.06837
1.07361
1.05819
0.212401
0.891625
0.929656
0.986209
1.03269
0.832571
1.06642
0.830123
0.842738
0.966847
0.909787
0.890863
0.83774
0.854339
0.985403
0.00709263
1.01907
1.08278
1.03445
1.05939
1.10699
1.05148
1.12483
0.930869
1.02024
0.975773
1.09636
1.08921
0.964603
1.10256
1.07528
0.968162
1.00233
1.05651
0.906846
0.00392382
0.212765
1.01041
1.01764
1.05057
1.01048
1.07218
0.876938
1.09568
1.03197
0.983331
0.842565
0.946697
1.05483
1.08564
0.878342
0.967724
1.05349
1.08268
0.947865
1.00134
0.969773
0.972239
0.97656
1.03102
1.07803
0.986482
1.06398
1.03858
1.07927
0.932667
1.01892
0.928232
1.01863
1.01889
0.926132
0.977383
0.981491
0.901623
1.0898
0.976119
0.925982
1.07643
1.05621
1.07423
0.00267784
0.935494
1.05723
1.09973
0.994273
1.11741
0.90859
0.00626679
1.06681
0.97819
1.02169
0.964275
0.926543
0.998125
0.95102
1.06827
0.889709
0.873073
1.06513
1.03597
0.855748
1.11048
0.25923
0.952383
0.239614
0.895049
1.03671
1.0391
1.03694
1.07479
1.015
0.889819
1.05399
1.02656
0.917527
0.299977
0.927578
0.84432
1.01877
0.871176
0.687731
0.899678
0.249766
0.925047
0.957726
1.06794
1.00783
0.990555
0.96312
0.00106377
1.10198
0.339984
0.855941
0.264148
0.843589
0.884366
0.940547
0.929196
0.819532
1.0666
1.04573
1.08554
0.763893
0.873027
0.936174
1.03035
1.08287
1.04773
0.976565
1.10736
1.08938
1.01302
1.01391
0.98412
1.0326
0.968643
1.07236
0.983388
1.10709
1.02989
0.996749
0.972107
0.836362
0.84455
0.954782
1.03271
1.05384
1.09301
0.885603
1.0424
1.01195
1.07555
1.01147
0.945419
1.07923
0.987953
1.05891
1.07726
1.0243
1.04908
1.00791
1.06436
0.229272
1.04539
1.10809
1.0751
1.04947
1.07472
1.03023
1.1088
1.04388
0.00213028
1.0574
1.05473
1.0923
1.05384
0.777791
0.984983
1.1065
1.05634
1.06199
1.07884
1.03306
1.08759
1.01766
0.995196
1.03487
0.951658
1.10391
1.07629
1.05638
1.09912
1.09937
1.0786
1.04358
1.1017
1.01787
1.05948
1.10045
1.04046
1.0776
1.10408
1.03731
0.892453
1.0505
1.04454
1.08272
1.06638
1.0085
1.04233
1.11219
0.905066
1.03154
1.0863
1.06768
1.02741
1.07691
1.08706
1.0205
0.980633
1.07578
0.876586
0.930459
1.06097
1.0637
0.00127839
1.01194
1.08606
1.09952
0.778974
1.10894
1.02419
1.01357
0.944787
1.10786
1.09866
1.07942
1.07006
1.11489
1.11362
1.04756
1.04215
1.01447
1.07981
1.06591
0.0012036
1.07509
0.896628
0.00121468
1.01144
1.05186
1.09996
0.996958
0.975374
1.06715
1.08015
1.04236
1.08046
1.01669
0.0337629
1.07245
0.970873
1.05334
1.00689
1.09029
1.10186
0.935327
0.000840857
1.06526
0.96838
1.07903
1.10711
1.10874
1.12541
1.03544
1.12685
1.1273
1.01594
1.0959
1.05042
1.07305
1.10359
1.09346
1.12797
1.13788
1.04082
1.07793
1.03368
1.06326
1.07077
1.06336
1.09882
1.07773
0.000946888
1.09835
1.07557
1.08175
1.06521
1.09137
1.07918
0.974402
0.0013593
1.05385
1.13231
1.04897
1.0783
1.10286
1.07927
0.0825563
1.10683
1.11413
1.09732
1.10401
1.09985
1.09929
1.12935
1.13055
1.09191
1.09126
1.05975
1.03274
0.964549
1.04338
1.11296
1.11449
1.06186
1.0749
1.10384
1.07007
1.1211
1.12995
1.12104
1.09591
1.12212
0.999305
1.13294
1.11336
1.10139
1.12648
1.06465
0.0779049
1.0451
1.05944
1.09657
1.06117
1.13475
1.07638
1.00367
1.05071
1.05666
0.0858095
0.0819292
1.10679
1.02631
1.04916
1.02216
1.06915
1.03081
1.10856
1.03228
1.07457
1.09581
1.11729
1.09509
1.07637
1.0391
1.12089
1.09735
1.11327
1.11994
1.0875
1.11077
1.10104
1.0991
1.06546
1.0546
1.13376
1.10025
1.01773
0.00076038
1.10296
1.12318
1.10574
1.06967
1.08731
1.0482
1.00133
1.09225
0.896299
0.95579
0.954555
1.02213
1.10527
0.819001
1.00512
0.990065
1.06954
0.87615
0.275816
0.826937
1.06461
0.983793
1.02927
0.977637
0.864682
0.890227
0.896621
0.876945
1.10602
1.05781
0.946298
0.94311
1.07698
0.838391
0.215739
0.965258
1.02189
0.967023
0.582169
1.08392
0.987912
0.944884
0.802352
1.03799
1.1057
0.0877189
1.12436
1.1346
1.11788
0.000214186
1.05547
1.09956
1.1093
1.12139
0.929168
0.260042
0.302452
0.0941552
0.161072
0.000306904
0.109079
0.689212
0.254644
0.359669
0.299481
0.221995
0.752956
0.290591
0.798095
0.100734
0.134461
0.129036
0.962869
0.0537481
0.855576
0.98464
0.889806
0.982051
0.93198
0.258971
0.144061
0.113749
0.182767
0.106869
0.112728
0.214765
0.0832735
0.117398
0.106539
0.772856
0.178849
0.0714254
0.261692
0.058095
0.14515
0.137994
0.116046
0.104503
0.121658
0.184919
0.000300444
0.093563
0.158367
1.08175
0.120109
0.154977
0.797158
0.082221
0.0764804
0.34577
0.0645227
0.470888
0.245994
0.102263
0.237807
0.17578
0.116411
0.833863
0.0850982
0.799328
0.229308
0.203381
0.251742
0.00237719
0.339291
0.114422
0.273995
0.112455
0.205871
0.676516
0.194358
0.934741
0.185501
0.31315
0.357409
0.187798
0.153378
0.155937
0.0524483
0.000228961
0.0836719
0.0968705
0.177894
0.241356
0.265557
0.0914015
0.112833
0.0536667
0.260931
0.144844
0.279152
0.199049
0.000733795
0.0541647
1.08097
0.15147
0.110988
1.04015
0.154343
0.169415
0.838536
0.134444
0.730321
0.165506
0.250486
0.222419
0.244506
0.242275
0.0534784
0.138774
0.0654161
0.870545
0.218818
0.306853
0.257288
0.113728
0.0604722
0.915063
0.149103
0.955073
0.327122
0.05812
0.863667
0.864876
0.793747
0.170594
0.247042
0.951338
0.271271
0.864678
0.133795
0.933775
0.15455
0.246797
0.843132
0.0943095
0.229567
0.0750828
0.0882473
0.114049
0.877684
0.0965188
0.169758
0.788689
0.230822
0.840577
0.0549635
0.285532
0.791995
0.206122
0.203698
0.099455
1.0938
0.910217
1.05051
1.00927
0.135651
0.160667
0.906144
0.907165
1.034
1.05549
1.03285
1.00346
0.170859
0.959103
0.749765
0.90731
1.00157
0.618151
0.875638
0.0733143
0.869865
1.09084
0.118156
0.900346
0.915599
0.0558573
0.861383
0.909213
0.888565
1.08414
1.07304
0.834779
1.06587
0.296161
0.873807
0.275152
0.251958
0.843188
0.925019
0.953146
0.295224
0.923935
0.499903
0.0433305
0.93629
0.0567877
0.317032
0.998354
0.94314
0.868305
0.766629
0.239076
0.194373
0.819454
0.990427
1.07163
0.912354
0.0775754
1.06005
0.259092
0.215092
0.206444
0.793073
0.434183
0.9684
0.501122
0.147679
0.00240036
0.812442
0.243906
0.0077573
0.19201
0.0522906
0.879384
0.709635
0.310857
0.908195
0.263505
1.00812
0.252474
0.226861
0.163583
0.153522
0.866356
0.130799
0.201987
0.855058
0.265734
0.139455
0.245138
0.850365
0.406573
0.581194
0.978866
0.244671
0.2082
0.858564
1.10164
0.314457
0.271853
0.126342
0.243618
0.297873
0.0796905
0.0542276
1.0981
0.00110726
0.000263634
0.000228041
0.00148742
0.0488609
0.000403333
0.0177679
0.000300183
0.000280596
0.0003372
0.0492529
0.00106739
1.12554
0.000291625
0.000321213
0.000263785
0.000343994
0.000350426
0.000259292
0.0506181
0.000295639
0.000747496
0.0674688
0.277905
0.000377881
1.0331
0.00946707
1.07588
0.0620952
1.05726
0.00645298
0.000336347
0.00123087
0.000451684
0.000291788
1.10504
0.000201376
0.00024676
0.000194145
0.000241558
0.000237302
0.000918211
0.0310586
0.000663928
0.000357752
0.124807
0.000271061
0.00177683
0.000602271
0.000699434
0.00028421
0.0513209
0.00526242
0.0724382
0.000229447
0.000320377
0.0319205
0.978566
0.000498798
0.0605838
0.0303926
0.000192732
0.00140595
0.00278088
0.00242202
0.00186929
0.000226257
0.00109245
0.00747935
0.0444576
0.00947828
0.00219579
0.000237219
0.000792764
0.000195371
0.000989013
0.000965779
0.00023567
0.000818054
0.000244455
0.000734512
0.000370472
0.000231061
0.00098827
0.000368305
0.000388121
0.000341296
0.00306617
0.0677134
0.000266211
0.00118974
0.0134417
0.00974997
0.000266432
0.00447247
0.000399395
0.00351501
0.000235138
0.000283226
0.000398746
0.836361
0.230859
0.000751098
0.88675
0.000338288
0.000381008
0.00276674
0.000619649
0.0849878
1.02269
0.00748534
0.000498504
0.00137389
0.00097869
0.802038
0.989935
0.0611169
0.000196114
0.000418646
0.00176778
0.833407
0.0887683
0.115703
0.156862
0.090009
0.154297
0.276457
0.0957151
0.0782499
0.0698816
0.0676544
0.0941516
0.0288504
0.105225
0.0410708
0.05711
0.107969
0.000278276
0.0873817
0.0706658
0.0864985
0.000689058
0.000356405
0.0640108
0.121625
0.126894
0.148678
0.933925
0.241177
0.00213952
0.0673958
0.000329362
0.134011
0.0923331
0.138233
0.151315
0.0413438
0.246616
1.02232
0.102535
0.226385
1.08421
0.103648
0.0973778
0.0709525
0.000201682
0.104886
0.11397
0.213449
0.298532
0.162229
0.278045
1.05725
0.000223535
0.10751
0.0534531
0.132698
0.175397
0.0495621
0.0771907
0.0035486
0.0630052
0.000261417
0.0564641
0.00177726
0.113189
0.00491064
0.0020628
0.0190551
0.167763
0.000821713
0.230083
0.000553961
0.000485797
0.00035578
0.0668759
0.000745735
0.931475
0.00021883
0.0578378
0.00233052
0.00292598
0.000215469
0.000257254
0.00117045
0.000628889
0.267492
0.239896
0.0832989
0.10336
0.00491508
0.168821
0.00176379
0.00105689
0.0387719
0.0180614
0.0765579
0.053675
0.168442
0.960804
0.174579
0.0202891
0.107972
0.17982
0.0979144
0.145917
0.000528507
0.0814392
0.000238223
0.000405784
0.0649702
0.00134456
0.0783863
0.00370988
0.000404941
1.08756
0.00454169
0.0889151
0.000366189
0.00204733
0.113035
0.000348406
0.000255852
0.000292344
0.0744644
0.00031805
0.0569253
0.00021014
0.125292
0.054371
0.970434
1.01299
0.0351532
0.121139
0.00183517
0.0533804
0.131817
0.160113
0.0849189
0.102386
0.0843655
0.000996165
0.137094
0.00056205
0.000728768
0.110425
0.113084
0.000336362
0.0992209
0.0918809
0.125019
0.0532423
0.146365
0.506093
0.125491
0.0933739
0.0878452
0.00023061
0.162813
0.145392
0.209862
0.160422
0.0817548
0.000415637
0.0479038
0.22928
0.000247153
0.000205688
0.162426
0.127439
0.330771
0.071299
0.101816
0.0526542
0.130053
0.00834789
0.109956
0.0966925
0.212998
0.098458
0.183728
0.000323319
0.909477
0.163077
0.0852877
0.000238154
0.372189
0.183648
0.0687686
0.250214
0.178573
0.0810447
0.140009
0.18888
0.00105586
0.0955068
0.391587
0.0765155
1.01183
0.0971802
0.677912
0.0950535
0.29257
0.0744695
0.118313
0.0666777
0.214079
0.199702
0.633357
0.137225
0.180989
1.06732
1.03889
0.102374
0.055604
0.215173
0.108599
1.06842
0.0428995
0.0836112
0.0767376
0.0632254
0.146692
0.446804
1.09747
1.09632
0.973263
1.0718
0.868949
1.10285
0.0616481
1.04999
0.0579818
1.06596
0.000218021
1.0114
0.92502
0.100499
0.000634087
0.117691
0.102825
0.000249625
0.0681098
0.0586538
0.000429947
0.835821
0.199293
0.277164
0.0539166
0.121476
0.000518681
0.0853353
0.0672779
0.0612419
0.211904
0.883453
0.136749
0.0694293
0.84423
0.761715
0.0987308
0.0574845
0.14353
1.04246
0.124288
0.228282
1.09071
0.0839466
0.0934788
1.03063
0.795174
0.00260245
0.000454997
0.103025
0.965461
0.100868
0.0853265
0.000384391
0.090565
0.116166
0.000508195
0.000230398
0.0517435
0.0845833
0.000192888
0.250134
0.0876589
0.134972
0.138595
0.000314784
0.0861892
0.250017
0.139282
0.722337
0.00602573
0.651346
0.138506
0.16025
0.185238
0.208638
0.0987939
0.0249021
0.20687
0.0978027
0.122023
0.378362
0.243969
1.0721
0.237646
0.57359
0.182285
0.136798
0.063906
0.0966916
0.000387671
0.117382
0.000259879
0.0984007
0.251151
0.0558767
0.1383
0.0698982
0.000470815
0.00684593
0.150507
0.00412896
0.00120607
0.134887
0.894996
0.174263
0.104755
0.0566613
0.216701
0.732754
0.000226795
0.0897249
0.000203048
0.012127
0.0427849
0.000777788
0.0231467
0.0313344
0.395224
0.254059
0.0843577
0.00584301
0.000681759
0.000673955
0.0675933
0.00097361
0.000241399
0.000239966
0.000260802
0.0599998
0.0557786
0.000672074
0.000329537
0.0556059
0.000287994
0.000961528
0.00689402
0.000464497
0.0690557
0.00140458
0.0911596
0.000242787
0.0921877
0.000329047
0.0624296
0.00508065
0.000438409
0.000316584
0.00102939
0.218559
0.0117856
0.0953694
0.169367
0.0514383
0.134608
0.315088
0.189593
0.193014
0.0935102
0.797411
0.107475
0.056711
0.201153
0.149805
0.000284649
1.04902
0.00890625
0.0652685
0.21322
0.000350917
0.124057
0.00185016
0.0888263
0.056463
0.144224
0.0913531
0.927185
0.120958
1.03266
0.0022244
0.234628
0.0116139
0.0163097
0.0988503
0.140902
0.00595136
0.00207475
0.000563338
1.05327
0.179682
0.992989
0.20704
0.0604925
0.236674
0.177963
0.000466113
0.000286862
0.000340522
1.07988
0.0552685
0.000229917
0.168904
0.00140559
0.199104
0.0856482
0.152703
0.108852
0.0555197
0.0983824
0.0451979
0.125391
0.00187399
0.108318
0.013952
0.0034956
0.00347386
0.00302181
0.000344039
0.000336302
0.000315803
0.0669321
0.000414619
0.000292066
0.000751128
0.000703923
0.0639626
0.00449683
0.00175021
0.263393
0.000202127
0.0520857
0.0620077
0.0934112
0.354356
0.192477
0.0895433
0.162679
0.00341698
0.000421846
0.00103245
0.125114
0.0941934
0.00355955
0.158969
0.000214432
0.00250558
0.0764633
0.00021601
0.00137037
0.0741204
0.000412141
0.0530357
0.762878
0.0607793
0.00545796
0.0950699
0.00117336
0.0188658
0.202107
0.0229137
0.121285
0.0786105
0.359119
0.000328364
0.0435282
0.00203741
0.000436863
0.000329649
0.00545393
0.00373214
0.000398515
0.017637
0.0849173
0.00179201
0.000442997
0.00021511
0.11824
0.140045
0.0380864
0.64307
1.04841
0.135791
0.154821
0.224198
0.0144258
0.176756
0.0584609
0.00105339
0.0048895
1.01256
0.0603801
0.000242474
0.0810367
0.000248278
0.081032
0.0249132
0.0905289
0.00209885
0.004647
0.000391027
0.000325336
0.0968746
1.10236
0.109269
0.000211041
1.01684
0.110824
0.000454689
0.0327196
0.11656
0.0942184
0.0642641
0.000341326
0.0815406
0.169487
0.0109886
0.00823959
0.00423333
0.0531672
0.0172604
0.0154334
0.00834385
0.000848441
0.000352176
0.000379832
0.0168207
0.0175944
0.00143413
0.265153
0.977707
0.0316302
0.0360096
0.0556829
0.089999
0.000787201
0.000501877
0.105269
0.000391905
1.07339
0.107216
0.0154281
0.00205404
0.000512603
0.000307789
0.00415867
0.00163822
0.171749
0.000601374
0.201503
0.000372424
0.000764963
0.00707134
0.0188362
0.105465
0.00258217
0.0542079
0.000725636
0.000671105
0.0375431
0.00583894
0.000378291
0.209051
0.00046916
0.00139432
0.170197
0.102664
0.00106596
0.23185
0.057884
0.00042929
0.00501604
0.000611743
1.08828
0.0181803
1.08943
0.000459767
0.0672615
0.000704904
0.00478769
0.000497022
0.00114009
0.000239752
0.124556
0.000557693
0.000209099
0.000742263
0.000465863
0.000989225
0.000886705
0.000268942
0.000418758
1.09589
0.841587
0.0012476
0.0791502
1.08388
0.00029751
0.102676
1.10383
0.0249246
0.000326342
0.00127463
0.00464525
0.000398068
0.00030337
0.00122173
0.000298448
0.000838731
1.12162
0.968746
0.000578336
0.989632
0.000200638
1.11043
0.000263224
0.000325342
0.000241004
0.000210103
0.000432006
0.299696
0.000272302
0.000258699
0.000225763
0.0833197
0.000512589
0.835735
0.798735
0.00123721
0.000833164
0.000248768
0.942469
0.000471846
0.00313986
0.000281226
1.11259
0.0141858
1.1225
0.000338392
0.000255013
0.000378489
0.000713279
0.00067385
0.000790244
0.000200356
0.00536967
0.00106703
0.000241569
0.00041646
0.000581651
0.00195534
0.000231514
0.000366003
0.000342966
0.00331478
0.000396477
0.000368866
0.000506478
0.000205706
0.000636511
0.000357289
1.08485
0.000227403
0.000238528
1.10232
0.00034626
0.000170809
0.000236861
0.000386824
0.000311681
0.000257903
0.00735091
0.00024737
0.000696517
1.05981
0.000750591
0.000676933
1.04341
0.000473271
0.000288895
1.01242
0.931384
0.000287978
1.01039
0.000239897
0.000369424
1.06656
0.000190888
0.984464
1.07846
1.12171
0.000225147
0.000368671
0.00240314
0.000265177
1.07693
0.000183561
0.000254395
0.885934
0.468142
1.12408
0.951942
0.000292143
0.000195221
0.00046975
0.000530247
0.000195365
0.000281541
0.0237762
0.000237952
1.05666
0.000294437
0.00197255
1.03926
0.000254972
0.000251323
0.000247504
0.0002834
0.000246367
0.000196558
0.000288792
0.000246619
0.000261223
0.000259043
1.10438
0.000273293
0.000202141
0.000916896
0.000259607
0.000617316
0.000269711
0.000288867
0.000191885
0.000301184
0.000271751
0.00024056
0.000242776
0.000252427
0.00470925
0.00207661
0.000335505
0.000221378
0.000350865
0.00023737
0.000252923
0.000266823
0.000336034
0.000308054
1.09213
0.000339219
0.00029705
0.000315396
0.000351088
0.006614
0.000359126
0.00103931
0.00068274
0.000264007
0.000364623
0.000374809
0.000293817
0.000286247
0.000520913
0.000282682
0.000209891
0.0034256
0.00025798
0.000282034
0.000884469
0.00837081
0.000281408
0.000682889
0.00041587
0.000706972
0.00717135
0.000473302
0.000986597
0.000465433
0.115414
0.000580404
0.000317221
0.00145844
0.000349178
0.000309382
0.000245047
0.000707453
0.000236598
0.00022587
0.000274357
0.000326133
0.00348226
0.000377438
0.000337544
0.000380657
0.000349456
0.000426034
0.000903823
1.08749
0.00350718
0.000573055
0.00163104
0.000380854
0.000366734
0.000217265
0.000334049
0.000249435
0.000219873
0.0508181
0.000296288
0.000254438
1.10247
0.000369034
0.00029002
0.00037797
0.000391952
0.00062867
0.000324692
0.000430669
0.000338849
0.000720195
0.000222249
0.000344243
0.00045328
0.000419875
0.000393931
0.000353392
0.000381806
0.00324761
0.000259497
0.000613067
0.000326213
0.000357217
0.000299462
0.000355629
0.000285516
0.000406445
0.000248141
0.000405874
0.00041188
0.000343518
0.000429752
0.000551811
0.000374708
0.000406609
0.000380724
0.000354412
0.000388606
0.000349236
0.000683793
0.000440772
0.000425675
0.000363796
0.00041825
0.000362522
0.000433957
0.000419549
0.000400766
0.000245597
0.000433763
0.0019009
0.000378185
0.000424181
0.000467595
0.000402064
0.000393833
0.000386215
0.000255175
0.000221358
0.000306047
0.000427848
0.000432803
0.000232982
0.000295494
0.00034046
0.000558313
0.000385064
0.000389677
0.000429048
0.000441013
0.000424133
0.000435489
0.00023138
0.000752792
0.000304628
0.000592839
0.000223745
0.000403361
0.000401782
0.000367086
0.000424653
0.00038044
0.000519198
0.00728252
0.00038962
0.000428652
0.000436085
0.000295164
0.000394292
0.000359736
0.000340825
0.000359994
0.000301844
0.000615997
0.000217358
0.000357854
0.00301041
0.000296511
0.000372848
0.000369142
0.000308601
0.0103224
0.000350508
0.000346264
0.0451158
0.000376289
0.000675663
0.000294001
0.000308017
0.000249581
0.0101487
0.000311333
0.000574644
0.000322551
0.000249254
0.000682939
0.000441514
0.00035651
0.000981057
0.000363224
0.000360092
0.000353246
0.00022264
0.00025091
0.000216378
0.000320505
0.000228521
0.000323906
0.000657891
0.00195008
1.11539
0.000220368
0.000361622
0.273589
0.000803571
0.000552601
1.09487
0.950592
0.0104251
1.12182
0.000243116
0.000339586
0.0606866
0.000216033
0.00026952
0.00634791
0.000951479
0.00027333
0.000671213
0.000396537
0.000434829
0.000303918
0.0118168
0.00619462
0.000351961
0.000340534
0.000396192
0.000614102
0.100202
0.000272025
0.000250417
0.000205127
0.00105987
0.000225444
0.00023409
0.00256673
0.000201844
1.07204
0.00138406
0.000251166
1.10392
0.000442609
1.0967
0.00159536
0.000692824
0.975167
0.785937
0.00146504
0.000725338
0.000250808
0.00283695
0.000251719
0.000540422
0.00102845
0.000343275
0.000258969
0.000268651
0.0157787
0.0236823
0.000193444
1.11973
0.000252201
0.000237729
0.000623347
0.000306067
0.000230712
0.000241053
0.000820886
0.000219719
0.00175375
0.000263132
0.000276401
0.000593758
0.000331846
0.00072538
0.000509339
1.01781
0.847391
0.905355
0.137866
0.00058502
0.85955
0.186108
0.638622
0.891867
0.972617
0.112724
0.000220916
0.00172322
0.000331995
0.000410786
0.00207119
0.000327807
0.000340951
0.00033294
0.00029222
0.000412139
0.000777693
0.000371658
0.000584304
0.00025696
1.00603
1.04761
0.988237
1.00479
0.943371
0.181836
0.868066
1.06261
0.698372
0.000517577
0.000463899
0.00046706
0.000330361
0.000501554
0.000408365
0.00138746
0.00221831
0.000536459
0.000693565
1.07813
0.536437
0.10502
0.239751
0.823592
0.638294
0.0721498
0.108196
0.000264743
0.190189
0.312632
0.153906
0.345886
1.09769
1.08476
1.06816
0.000844908
0.00135762
0.00126382
0.000754547
0.000314136
0.00607844
0.00114398
0.000275547
0.000382539
0.99223
1.12155
0.000287457
0.999804
1.10082
0.94367
1.11371
0.406523
0.259174
1.00619
1.08539
1.12319
1.07045
1.10727
1.0465
1.1139
0.362742
0.000264711
0.0618221
0.0426658
0.171773
0.000748292
0.000293481
0.0690158
0.164386
0.904736
0.316788
0.123829
0.0644903
0.0953073
0.121815
0.147918
0.000441546
0.000232698
0.000426113
1.10955
1.10561
0.882137
0.874578
0.306478
0.117335
0.215007
0.95148
0.0671677
1.0615
1.02824
0.000801216
1.08463
1.06702
0.121745
0.720638
0.936746
0.0580241
0.772352
0.0159121
0.000286621
0.316722
0.781359
0.799764
1.03727
1.00847
0.000624251
0.0419407
0.00609031
0.000332596
0.000417213
0.000382883
0.000432357
0.000369914
0.000608777
0.000301812
1.13148
0.000283906
0.000376514
0.00872373
0.0819764
0.0923874
0.00033374
0.000412193
0.000331575
1.10258
1.00885
1.02639
0.000597207
0.000548253
0.000706945
0.000506751
0.879135
1.01793
0.949566
0.258249
0.741563
0.152248
0.209359
0.000440316
1.13565
1.02699
1.0436
1.06874
1.1177
0.257428
0.895513
0.946521
0.00430067
0.797728
0.000253315
0.00036215
0.000327983
0.000216076
0.145583
0.150565
0.000449404
0.000269781
0.174655
1.05401
0.000346146
0.00087607
0.000455645
0.000203208
0.000254226
0.00057651
0.0601694
0.000320909
0.000377322
0.000444906
1.10696
0.000346902
0.00221789
0.211694
1.07485
1.05073
0.00286998
0.00832109
0.00166918
0.0844187
0.0116083
1.07645
0.128278
0.0950842
0.097008
0.0928661
1.05856
0.000394846
0.000359684
1.04845
0.838739
0.219933
0.000323571
0.000818637
0.0040424
0.0916049
1.03222
0.0396023
0.110504
0.0729507
0.0699186
0.000665476
0.00046247
0.000551463
0.000892627
0.000337963
1.04005
1.0709
1.06852
1.10523
1.12661
0.00303377
0.000299047
0.00162879
0.859002
0.000204655
0.000213103
0.0895827
0.00329392
0.145802
0.0511473
0.000940478
0.00123726
0.115749
0.000566176
0.000552676
0.00165683
0.894779
1.05577
0.00871166
0.913273
0.625272
0.00115388
0.000218498
0.985875
0.00722337
0.00020951
0.000643217
1.08405
0.000250262
1.10799
1.12411
0.785415
0.959707
0.960234
1.03735
0.826538
0.160751
0.000379026
0.000510977
0.000418165
0.000486063
0.000296756
0.000426182
1.07266
1.08009
1.10728
0.000413711
0.000360433
0.00525489
0.00843605
0.000349866
0.0123298
0.000390288
0.00058908
0.000217889
0.00268606
0.000427523
0.000693631
0.000389807
0.000330188
0.0119861
0.155793
0.248952
0.105287
0.860925
0.909912
0.848581
0.247331
0.000300768
0.000266912
1.07255
0.257376
0.939219
0.157242
0.0663522
0.00275622
0.000217815
0.000455175
0.000232852
0.000465679
0.000563795
0.000399482
0.000574128
0.986902
1.0907
0.00020168
0.0138932
0.000206625
0.00021783
0.000478412
0.0104352
0.000232712
0.00199474
0.000458283
0.000383995
0.000439284
0.000465472
0.015045
0.000657596
0.000626542
0.000410529
0.00933273
0.0718309
0.351911
0.0141886
0.229507
0.991789
0.151818
1.06443
0.00024014
0.0136161
0.125327
0.0925551
0.0806517
0.118042
0.0714552
0.0759638
0.0747768
0.30143
0.0713955
0.0967498
1.07892
1.0639
1.074
0.948999
0.0240099
0.0141288
0.000536801
0.0651398
0.968981
0.000392672
0.00195635
0.000408456
0.00030806
0.77646
1.09361
0.130743
0.0655323
0.226544
0.220863
0.000439349
0.000617588
0.000365694
0.959955
0.0907885
0.131017
0.0466597
0.000419094
1.10208
1.03078
0.000286815
0.0002564
0.00054961
0.000217714
0.000287006
1.03809
0.0423816
1.02447
0.000386019
0.00103001
0.000213719
0.000238145
0.840726
0.000252817
0.0255216
1.10129
0.650357
0.224943
0.869827
0.311289
0.357504
1.02104
0.000380094
0.000278929
0.0006127
0.888067
0.000437434
0.000607463
0.000581937
0.000598961
0.000365672
0.000416177
1.0926
0.000257403
1.06354
0.205945
0.303916
0.000200372
0.000381281
0.00019932
0.000298159
0.1981
0.089686
0.0551578
0.131347
0.0779345
0.127259
0.0967552
0.00540832
0.000759044
0.000419616
0.0242644
0.000191397
0.00457358
0.000226311
0.000346492
1.10207
1.0237
0.000324017
0.000366707
0.000520734
0.000467142
0.991299
1.09446
1.09139
0.000459487
0.000547407
0.000313506
0.000407704
0.0841189
0.0958358
0.0903017
0.889412
0.349861
1.08994
0.000411963
0.00020342
0.000663544
1.11198
0.000275409
0.000313834
0.0575519
0.0750331
1.08838
0.118976
0.176296
0.0874152
0.0689656
0.0745638
0.973204
0.0542494
0.213196
0.11288
0.0582264
0.00021277
0.301932
0.125632
0.146903
0.106365
0.111942
0.00194106
0.00122886
0.000330994
0.000497248
0.000584649
0.000460868
0.147086
1.07654
0.798443
1.05613
0.796089
0.167412
0.258201
0.227982
0.213142
0.198451
0.270003
1.00375
0.0617068
0.0998212
0.962056
0.284014
1.06151
0.132488
0.166482
0.249323
0.132689
0.166788
0.0712044
1.00978
0.957983
0.995818
0.888947
0.116973
1.12518
0.000426501
0.00546303
0.0526064
0.000282043
0.00747729
0.000433342
0.155857
0.000479135
0.000588755
0.00558309
0.000235454
0.000324448
1.11197
0.761933
0.229095
0.740675
0.976771
0.909992
0.254246
0.0827786
0.128959
0.112508
0.000729377
0.000261658
0.00036577
0.000414309
0.00108721
0.000335692
0.000437818
0.000426952
0.00361347
0.000261476
0.00364895
0.0107749
0.000437801
0.000728195
0.00101322
0.9121
0.870029
0.89644
0.0548514
0.989395
0.918424
0.945179
1.04041
1.05417
0.0117085
0.00498194
0.951274
1.07213
1.05343
0.146882
0.972867
0.0044017
0.00025571
0.0654544
0.000364248
0.00145669
0.000448493
0.000490521
0.000453343
0.0888959
0.246296
0.11303
0.233263
0.120133
0.000582608
0.000266982
1.09152
0.000959912
1.06707
0.0731506
0.139447
1.0678
0.000292266
0.00181148
0.000349277
0.000290918
0.0746307
1.1025
0.151641
0.00045723
1.08126
0.000239125
0.00381255
1.13285
1.09368
0.000243971
0.000274028
1.09784
1.07258
0.108761
0.000288381
0.284686
0.0267281
0.00037706
0.000564788
0.000286893
0.00331548
0.116719
0.0623462
0.0977818
0.922096
0.000386004
1.06686
0.106422
1.01211
0.000609294
0.000524864
0.0859223
0.00525898
0.793498
0.118575
0.955221
0.874811
0.614856
0.904625
0.884816
0.551668
0.000305934
0.000250625
0.00023051
0.865026
0.163132
0.266128
1.06274
0.156588
0.272605
0.237402
0.000413765
0.00124906
0.195859
0.000296004
0.000454035
0.000420896
0.144037
0.0891801
0.0543471
0.00023603
0.00599693
0.981163
0.000246352
0.00946527
0.706684
0.185232
0.809141
0.0171273
0.0234757
0.000403579
0.00042067
0.00043594
0.00703326
0.000272463
0.000796026
0.12001
1.05074
0.732631
0.98742
0.013654
0.000275175
0.000571617
0.000596723
0.0168212
0.00045599
0.000401567
0.0353991
0.000524205
1.05012
0.0750766
0.910758
1.0439
0.000799879
0.000286195
0.00723703
0.000413078
0.00393025
0.000206276
0.000776659
0.0152452
1.01571
0.133272
0.171422
1.03755
0.000306603
1.06797
0.000316402
0.000426617
0.000310483
0.177247
0.251374
0.897321
0.231651
0.000849105
0.000413782
0.00048347
0.00352624
1.0394
1.08226
0.00339299
0.000466448
0.000277765
0.042568
0.791495
0.000290361
0.827531
0.0557549
1.01393
0.153987
0.000286304
0.000254301
0.000233081
0.000553259
0.000436001
0.00484942
0.000332228
0.0599859
0.0117893
0.000240367
0.000276894
0.00210189
0.00038996
0.0179336
0.000430647
0.000494591
0.0016678
0.000473912
0.000395988
1.05155
0.000359275
0.000316002
0.000538791
0.993508
1.0649
1.02931
0.000690348
0.00046072
0.000738405
0.000839579
0.272161
1.05156
1.01992
0.761393
0.00022922
0.000356053
0.000360198
0.112862