/*--------------------------------*- C++ -*----------------------------------*\
| =========                 |                                                 |
| \\      /  F ield         | OpenFOAM: The Open Source CFD Toolbox           |
|  \\    /   O peration     | Version:  2306                                  |
|   \\  /    A nd           | Website:  www.openfoam.com                      |
|    \\/     M anipulation  |                                                 |
\*---------------------------------------------------------------------------*/
FoamFile
{
    version     2.0;
    format      ascii;
    arch        "LSB;label=32;scalar=64";
    class       volScalarField;
    location    "2.08459e-06";
    object      T;
}
// * * * * * * * * * * * * * * * * * * * * * * * * * * * * * * * * * * * * * //

dimensions      [0 0 0 1 0 0 0];

internalField   nonuniform List<scalar> 
49294
(
222.83
216.917
264.162
187.25
98.5173
246.987
329.893
50.9012
274.53
289.657
173.249
280.129
297.951
142.705
272.939
277.766
267.334
245.491
268.328
63.4328
281.785
267.937
260.128
271.978
280.674
281.263
259.719
269.662
110.627
187.783
267.336
264.368
126.128
264.033
230.334
268.81
77.9061
299.929
263.601
219.883
263.842
271.807
213.032
80.9241
277.864
273.684
238.485
260.401
57.9853
162.654
208.072
247.931
72.393
111.884
132.778
247.649
265.15
327.09
311.315
308.622
252.44
312.43
271.029
241.767
51.5229
271.41
268.583
262.671
247.284
267.045
271.865
117.254
178.88
265.172
264.48
266.651
271.547
268.279
261.656
250.951
291.665
245.158
239.646
198.241
292.935
279.968
279.509
253.675
270.536
269.933
263.627
131.168
167.644
170.777
246.762
149.12
261.825
256.953
164.809
259.919
269.737
251.538
181.332
261.178
141.793
86.2059
258.593
247.802
119.778
258.176
266.505
52.8158
257.589
262.273
270.786
261.893
256.302
77.0583
257.092
330.326
264.629
164.671
51.6787
48.5725
221.548
48.9095
276.625
264.383
283.76
243.626
157.417
259.174
248.458
262.931
70.8674
321.653
305.022
264.821
260.715
259.755
330.266
264.915
329.593
264.118
312.197
201.205
125.098
225.933
263.12
258.407
259.739
130.342
261.222
260.06
57.4845
303.346
305.008
305.164
305.79
306.955
306.226
304.944
303.183
310.203
270.028
328.611
311.83
305.131
304.518
316.903
307.33
300.96
301.001
325.938
304.675
308.31
69.9672
304.378
327.649
304.853
309.712
306.521
303.274
300.834
318.93
304.705
299.153
312.471
303.55
309.024
316.664
303.691
308.268
327.65
316.906
312.786
302.321
327.969
304.814
312.745
302.02
303.112
304.968
303.221
307.079
311.089
307.441
303.484
281.345
301.345
270.216
241.064
260.3
301.437
300.325
106.643
306.437
312.014
302.464
308.085
327.521
329.536
312.289
304.562
305.794
302.174
301.421
305.87
317.068
301.566
304.408
300.483
303.344
304.628
304.9
317.411
306.779
306.056
307.847
308.355
303.337
301.773
303.089
329.87
305.312
305.165
313.572
309.435
303.385
325.407
302.906
302.244
306.443
318.89
305.225
309.876
327.648
317.713
302.733
300.333
315.284
301.002
301.696
307.304
322.006
306.979
300.781
305.07
305.053
310.415
330.143
312.222
313.894
319.527
329.602
313.247
310.9
311.08
304.439
302.787
319.875
300.441
303.092
314.307
129.58
305.532
309.996
306.451
304.537
305.449
305.312
305.053
300.399
309.312
316.083
314.998
309.652
312.938
199.362
329.244
329.907
323.204
317.983
325.413
300.614
328.642
328.594
327.535
330.155
328.266
324.115
329.536
319.997
142.144
320.068
311.088
318.527
312.598
307.895
303.545
305.167
327.438
319.745
324.859
300.93
301.462
327.178
303.277
301.995
326.273
318.361
309.788
330.005
147.161
218.112
317.518
313.839
315.093
321.872
305.388
328.58
303.769
317.831
325.795
324.078
328.689
300.304
310.633
325.904
325.951
303.571
308.505
328.538
317.598
326.052
325.227
324.683
319.607
305.252
322.175
305.721
316.65
309.386
325.42
316.848
331.603
320.812
318.508
329.708
325.901
324.883
330.955
300.653
325.803
328.366
307.683
314.988
311.204
225.483
329.216
311.445
303.351
318.026
303.576
327.004
150.689
301.566
323.873
317.743
326.232
330.954
323.162
326.648
309.923
330.135
329.001
311.887
318.105
328.552
303.75
219.895
327.245
224.124
330.322
313.654
317.232
316.435
301.277
322.575
330.631
305.925
313.008
331.375
244.069
328.166
328.341
319.029
330.044
305.519
329.563
222.099
327.384
326.769
300.571
316.597
323.979
323.796
246.8
300.603
246.219
329.163
215.72
328.644
331.561
329.21
328.822
325.766
310.339
310.842
304.511
315.53
329.815
328.001
315.166
307.544
318.294
325.964
304.02
308.672
320.413
316.586
324.083
317.569
323.994
314.365
323.82
302.967
317.906
322.444
325.478
322.942
328.724
326.599
318.591
308.983
303.277
331.602
310.109
321.386
302.383
316.268
328.179
303.818
324.238
301.521
300.197
319.156
308.964
320.193
307.677
224.569
311.433
304.577
311.841
300.31
311.889
317.231
302.913
315.774
99.0131
315.617
302.076
304.334
314.441
319.007
319.403
300.762
300.323
307.487
311.879
314.425
305.301
316.307
321.64
316.214
327.359
301.381
309.228
316.812
301.337
308.602
300.762
316.865
308.242
320.503
312.024
308.981
316.698
310.716
306.742
312.622
328.717
317.462
309.272
309.009
308.673
321.922
314.01
305.2
329.291
316.571
309.204
303.215
312.215
311.364
303.728
319.039
325.271
300.611
329.125
329.087
307.737
303.333
223.835
318.337
304.959
304.288
323.732
304.068
315.776
320.211
324.885
304.531
302.88
302.055
300.667
304.569
303.845
311.637
313.968
318.023
310.635
313.971
243.295
300.41
329.407
235.031
321.954
313.005
308.118
321.173
324.723
311.787
312.559
310.75
303.286
320.281
110.164
311.435
322.98
314.931
323.246
303.942
308.977
328.086
245.891
313.684
325.621
308.844
305.069
304.2
303.448
317.542
304.239
304.946
320.769
306.177
314.006
308.162
306.1
303.267
305.273
304.427
316.739
311.352
312.176
311.587
302.875
314.541
301.515
309.324
236.777
301.404
308.189
309.784
312.71
303.614
311.204
321.892
206.793
311.203
305.383
300.447
301.034
305.762
309.137
147.919
306.097
302.398
306.001
308.48
308.668
309.455
304.205
305.236
308.322
304.917
309.742
313.296
326.617
314.581
304.381
305.258
308.221
306.811
304.176
302.015
306.667
305.67
303.64
301.854
306.838
320.115
305.357
302.717
302.362
305.306
303.045
151.928
315.697
300.445
300.423
313.574
305.017
302.111
316.875
310.232
312.554
151.14
150.983
303.867
319.063
313.406
319.243
314.826
318.202
301.403
312.029
311.187
307.98
302.65
308.698
310.824
316.771
306.348
305.886
305.104
303.967
300.564
305.284
302.953
303.032
310.258
312.795
304.458
301.247
319.493
87.5595
304.7
303.156
306.33
300.309
304.838
314.742
321.425
302.868
329.777
328.753
324.484
315.822
302.144
327.237
322.24
321.749
301.588
330.396
230.658
329.727
313.415
325.2
314.051
325.493
325.386
329.617
329.181
329.163
306.944
314.273
329.202
326.797
311.04
323.908
212.859
326.596
319.308
325.669
290.03
302.832
324.568
324.968
322.449
312.024
304.355
152.454
303.787
304.582
303.147
258.765
314.467
303.932
300.726
303.864
328.988
237.311
235.603
157.067
203.279
272.934
162.518
306.175
217.537
245.814
226.698
228.796
321.703
248.698
324.088
159.767
202.243
174.75
322.801
193.564
330.713
320.316
325.641
324.611
329.218
211.133
205.01
164.32
195.971
183.81
160.973
217.247
149.473
162.042
171.827
316.301
193.062
183.902
221.692
180.473
203.787
203.075
191.548
170.408
171.422
194.546
271.21
150.452
208.112
302.697
200.949
196.467
321.81
176.431
166.753
262.636
179.332
267.71
210.316
178.856
220.414
188.073
197.097
322.707
143.193
321.501
225.784
213.456
218.388
206.416
238.835
187.473
219.03
181.212
218.822
304.284
210.502
328.43
207.755
237.52
245.071
193.394
196.733
213.999
169.233
255.721
172.17
150.269
211.106
215.636
227.157
150.75
180.082
145.978
214.693
179.226
221.706
209.691
229.687
204.937
309.223
208.748
171.031
310.552
178.507
196.271
330.066
178.914
314.826
213.936
219.303
224.488
218.318
216.823
136.206
174.707
172.581
329.307
213.779
237.073
220.652
159.663
175.916
329.819
176.192
327.666
238.769
139.734
325.141
327.753
324.823
195.487
227.825
327.263
242.393
328.614
199.283
325.685
182.2
214.488
323.613
173.782
219.616
171.685
146.262
159.682
330.864
151.638
188.982
319.385
221.831
324.785
179.234
225.25
317.78
215.488
201.208
178.581
302.696
331.067
313.041
318.164
197.048
184.137
329.704
330.798
314.944
304.57
318.755
318.273
208.466
325.961
313.338
326.653
320.608
296.193
330.414
151.354
330.081
301.649
186.801
328.179
330.468
134.768
328.922
326.447
329.884
300.545
302.866
324.344
305.896
227.06
326.263
235.241
215.936
327.733
328.715
327.906
248.03
326.119
271.843
136.955
327.459
128.957
230.362
323.814
327.513
330.121
320.555
221.983
213.294
330.207
323.215
309.954
331.954
139.377
306.913
225.901
204.87
222.847
327.114
266.87
325.659
271.39
196.42
217.88
323.334
218.455
164.834
208.27
145.063
329.418
310.071
230.926
329.363
216.912
317.015
223.913
222.636
183.353
178.667
327.549
170.116
221.041
329.896
227.583
168.557
221.638
324.185
252.329
291.026
324.857
219.733
220.594
329.595
306.551
236.514
229.492
179.272
220.803
235.478
140.258
184.284
302.613
57.852
263.449
247.912
54.4711
150.229
277.322
163.657
213.657
243.603
251.378
139.237
80.058
302.639
258.612
175.587
262.462
260.393
199.659
217.745
129.986
262.403
266.412
130.808
236.313
277.94
315.412
82.4847
300.834
133.038
312.986
152.14
263.948
80.4135
130.068
147.308
302.928
265.68
260.265
266.371
253.682
197.714
256.452
126.283
118.804
269.989
164.925
262.863
205.767
137.126
272.633
268.571
200.414
156.547
143.927
249.732
242.34
124.215
324.232
269.488
161.08
100.313
263.314
231.239
204.705
249.527
52.191
259.103
223.644
72.5729
164.904
108.157
176.821
260.379
63.5215
268.653
244.084
212.986
270.911
253.793
265.495
118.031
282.947
264.599
271.283
203.774
281.415
259.412
160.41
175.592
260.809
75.706
80.971
73.1353
258.659
183.046
278.263
69.0758
271.753
187.565
243.414
327.673
219.198
107.397
329.965
272.152
261.211
63.0974
284.484
188.772
319.044
72.4481
141.487
181.066
198.198
321.29
320.556
131.345
261.243
144.889
257.24
323.168
174.803
165.161
206.515
161.721
176.049
219.935
148.699
172.328
169.849
155.95
153.389
128.933
192.487
142.926
168.927
186.893
247.311
173.021
170.816
164.722
85.9994
277.174
155.148
162.396
188.133
186.744
330.19
208.682
98.808
170.896
265.604
202.604
161.175
202.058
175.874
147.718
223.371
318.338
151.89
203.456
308.322
183.008
150.255
169.891
267.304
186.62
192.897
205.785
231.024
200.904
227.575
302.643
247.233
187.038
188.971
196.609
185.915
147.067
168.802
72.4369
197.794
265.292
123.992
229.084
185.365
89.7416
178.5
107.76
190.763
274.456
220.376
84.7279
188.056
251.359
145.096
140.781
330.242
262.623
194.459
245.426
145.59
262.616
165.366
181.947
189.831
221.033
229.32
155.395
201.606
57.8689
217.663
49.5711
270.992
108.739
102.219
168.953
185.132
198.409
326.13
185.206
117.494
155.894
202.532
187.384
173.865
238.471
145.378
205.014
278.995
132.589
235.214
175.71
165.135
284.083
305.047
63.5836
173.954
275.697
139.161
159.878
274.095
262.542
267.168
169.341
247.613
193.333
271.022
190.547
130.559
326.341
316.607
142.622
190.493
153.969
173.359
199.066
197.762
148.109
163.35
143.477
246.15
170.412
268.596
193.081
163.833
198.6
267.013
157.122
189.006
184.884
135.254
175.643
272.667
163.113
169.383
151.341
202.428
179.664
189.497
216.431
204.766
170.168
206.753
148.539
205.014
255.755
268.735
190.235
175.213
244.759
175.316
186.75
185.734
174.08
113.638
158.993
186.805
206.848
184.73
190.785
267.372
329.358
216.924
143.831
242.116
266.863
201.038
160.989
210.764
197.694
140.385
175.184
200.123
65.0012
182.144
250.633
168.554
321.256
174.989
304.572
150.981
231.232
164.094
193.234
181.609
200.695
210.176
306.747
191.829
189.598
301.136
314.288
187.883
167.674
212.427
156.694
300.502
114.321
168.211
140.252
186.484
202.474
260.79
302.597
308.038
324.333
302.515
329.068
307.374
179.151
312.081
125.687
310.984
222.376
321.261
329.138
194.355
107.443
162.638
179.654
256.758
172.968
171.654
245.408
324.822
210.956
219.685
176.87
165.975
256.614
184.279
166.372
166.758
211.988
326.16
199.392
159.422
329.19
319.779
151.846
161.531
173.537
313.916
164.697
205.559
300.804
153.599
159.911
319.852
322.155
88.4186
211.896
155.789
326.045
159.623
142.727
273.458
184.307
164.049
149.183
247.532
194.287
144.504
260.143
216.257
144.901
178.39
173.939
240.763
146.21
213.004
201.927
310.752
82.2603
299.42
177.389
180.721
196.181
203.367
207.141
160.289
220.91
150.996
187.671
243.078
217.684
312.072
211.295
284.447
200.557
180.661
171.836
193.224
240.047
183.879
224.012
151.243
214.155
125.733
179.745
147.185
263.562
63.3535
202.669
57.4765
61.4483
172.954
329.687
190.327
155.994
183.255
203.416
316.608
264.615
168.73
261.927
77.1176
166.729
235.927
105.122
105.765
250.999
225.968
188.428
172.625
153.721
249.378
170.258
154.099
254.476
262.999
261.708
184.563
172.618
226.06
245.53
183.054
267.392
217.709
79.3083
99.4931
190.063
147.45
147.355
263.372
146.035
220.727
148.971
71.2305
278.889
266.41
251.543
207.104
80.978
151.512
179.696
129.512
167.591
235.507
212.554
210.167
158.489
322.766
177.086
180.359
201.216
177.202
257.825
306.758
68.9036
190.573
214.952
262.726
188.455
115.95
155.587
199.725
183.032
148.427
328.905
181.406
317.798
66.6138
215.269
115.678
97.2371
150.616
198.709
79.3146
201.637
116.834
304.35
206.653
324.596
219.554
135.686
221.114
195.073
293.503
267.47
270.72
312.723
175.897
266.437
206.407
279.535
209.261
166.179
188.986
187.47
189.037
151.324
114.333
198.116
99.2059
159.493
80.6385
55.42
56.2791
75.9063
261.496
273.56
271.378
131.235
285.184
267.055
252.079
136.27
169.196
87.4131
144.039
233.217
230.398
178.245
202.686
149.054
263.475
211.036
172.946
200.089
86.6603
272.883
241.194
165.003
186.057
85.9207
179.973
245.633
136.212
163.319
253.942
183.801
136.614
107.469
185.815
320.313
183.084
66.7018
174.892
75.9233
103.817
192.126
127.475
173.662
139.258
240.228
242.028
128.779
272.672
203.172
268.254
70.9713
107.201
269.931
114.786
143.985
50.5973
167.501
246.324
159.302
206.037
123.122
301.203
300.838
176.695
209.45
207.881
79.6674
187.09
183.272
243.446
59.0529
314.929
171.959
255.442
185.034
242.94
147.063
140.865
145.089
252.399
58.6745
280.99
140.68
152.595
307.633
156.302
265.297
314.449
158.562
248.641
138.947
192.542
181.191
172.854
265.757
141.653
188.602
147.725
96.8653
80.2317
138.168
122.221
122.711
98.5552
254.215
280.855
183.681
157.444
96.4799
49.5393
227.568
325.786
102.461
137.883
150.404
152.863
216.287
276.702
187.621
238.05
311.795
184.051
94.1993
216.215
134.039
177.715
57.221
228.587
191.252
96.1318
210.635
110.203
263.726
108.869
95.8607
155.361
52.2093
187.561
85.183
203.308
140.255
82.0187
262.331
212.852
193.674
259.71
187.148
152.811
157.386
221.821
133.699
222.331
91.5822
235.16
302.056
150.148
303.68
263.574
133.252
58.1942
57.7503
76.5292
48.1601
266.49
164.012
233.843
262.18
220.664
99.1086
78.5142
230.57
267.535
201.39
310.184
326.883
204.059
149.893
310.564
260.846
154.034
307.688
97.552
272.566
47.8134
57.3707
283.915
264.711
63.1043
244.492
68.3797
303.635
322.125
206.76
323.904
263.876
304.746
177.779
255.975
254.521
265.519
165.07
230.233
248.214
275.661
265.098
145.227
185.521
329.112
326.433
160.178
52.7853
207.272
328.605
175.298
54.8916
263.003
304.871
78.7495
305.475
274.207
260.714
279.352
81.5134
49.0728
247.456
261.705
155.469
55.4263
265.68
279.726
115.748
58.6188
264.957
237.536
239.388
175.22
287.405
260.855
100.634
261.025
103.366
279.474
301.695
261.548
250.022
300.856
283.573
262.897
195.179
222.813
269.688
258.233
70.5444
264.143
195.42
300.355
60.253
189.499
314.306
190.165
260.627
320.907
328.842
268.736
317.164
257.467
191.909
307.901
261.774
325.266
308.402
302.604
264.404
226.367
95.4504
260.069
309.462
265.216
259.13
329.231
268.347
305.284
323.985
262.009
264.031
285.681
228.246
263.397
264.996
116.852
263.95
313.976
264.742
81.9763
317.455
257.08
259.597
259.386
260.143
259.984
261.906
260.329
258.491
259.806
259.456
307.739
235.323
259.493
52.5288
268.478
124.577
268.515
258.892
265.191
260.532
264.508
259.282
225.968
260.808
85.262
134.246
138.713
253.247
258.181
260.404
261.222
256.653
270.329
262.992
303.181
266.6
260.972
261.798
268.439
62.8034
269.716
54.9322
79.4824
263.224
281.48
275.671
258.98
233.344
221.207
239.05
262.253
228.356
259.588
266.783
260.003
105.674
255.927
54.9094
296.254
93.4679
64.6349
279.943
68.1749
287.691
177.667
285.049
263.157
59.4408
272.86
262.076
255.411
79.0488
265.553
263.96
262.082
263.7
56.2967
282.342
268.297
277.752
266.177
296.701
67.8212
308.856
55.5233
133.567
59.5885
274.532
271.285
260.646
265.448
263.54
203.693
222.943
267.854
265.817
306.824
215.976
256.941
277.21
273.856
245.61
265.6
294.441
275.138
52.2415
256.91
276.251
286.73
293.72
286.946
271.528
275.66
64.994
196.755
135.374
234.043
277.268
265.099
269.773
266.69
274.189
260.189
296.61
297.286
272.209
295.865
135.486
281.673
287.712
267.289
276.847
280.999
245.818
104.192
279.189
297.794
273.501
295.556
273.436
294.204
296.307
294.199
255.566
298.712
53.9391
290.46
295.861
210.983
287.666
266.518
281.649
246.898
251.674
264.927
295.848
294.238
266.297
243.906
267.499
99.1701
288.932
281.228
297.62
299.292
169.521
298.696
260.433
238.431
267.003
290.603
264.863
295.004
290.684
284.401
289.127
295.5
289.555
179.476
281.606
296.889
251.489
267.345
282.552
275.243
271.674
265.512
265.952
211.369
262.225
270.76
80.5343
263.926
265.825
274.144
267.639
70.8918
276.752
273.304
123.518
98.5799
264.973
261.413
262.553
258.838
102.803
264.784
118.784
268.24
255.616
130.942
274.982
210.864
222.295
279.011
291.721
284.106
264.963
253.084
261.137
267.22
264.373
266.303
123.327
204.953
304.705
264.628
223.519
222.4
51.3879
175.639
309.731
327.746
75.8657
305.839
266.675
272.87
142.661
263.197
264.976
119.453
77.411
263.457
85.543
283.24
96.8095
227.836
75.3933
179.065
237.037
267.513
279.505
85.4355
151.972
256.924
262.774
263.606
50.4127
248.557
250.532
99.3534
258.819
311.616
86.4745
265.636
304.743
276.504
303.806
107.017
77.7662
323.585
324.337
74.4121
49.4803
260.29
201.023
258.583
149.88
50.4054
269.447
258.179
242.897
101.005
143.533
257.586
301.767
257.729
252.161
84.3116
262.392
249.995
264.441
79.811
265.798
188.865
260.557
255.344
264.748
264.623
113.011
84.4454
314.695
329.489
326.252
192.582
142.664
329.502
199.415
299.983
330.081
325.49
159.879
262.827
124.842
265.546
240.757
52.9598
235.551
272.174
273.509
268.8
293.852
89.6839
275.5
280.325
263.053
319.755
306.657
319.856
322.467
326.562
196.034
329.686
313.775
307.796
273.784
286.79
238.099
273.254
289.936
186.072
64.1042
248.735
261.124
69.107
309.492
278.39
177.811
230.557
328.361
293.643
185.606
177.736
267.586
192.101
230.774
178.537
250.301
303.703
302.938
313.299
47.5738
248.665
61.948
101.18
268.776
64.1299
81.4306
268.533
279.774
322.931
303.303
262.714
321.271
307.879
327.956
303.47
254.918
222.852
316.666
308.723
303.356
309.506
304.244
312.224
306.107
248.008
259.568
176.791
162.603
193.088
295.264
207.917
184.416
208.707
329.252
235.422
188.508
165.591
182.936
173.924
199.464
287.089
265.155
298.486
302.048
300.846
329.137
330.05
229.791
180.372
214.235
324.354
173.614
311.26
318.4
89.6529
302.05
312.12
165.039
313.627
326.804
168.238
321.013
128.091
267.614
233.424
324.022
322.433
316.275
322.877
117.169
142.899
63.6282
254.949
276.58
224.811
169.201
229.506
55.3389
239.841
304.959
260.96
225.714
115.089
189.036
162.04
269.493
294.327
276.259
308.753
321.091
318.519
288.023
255.258
187.7
296.791
331.201
317.238
324.242
229.303
314.036
196.336
214.38
296.988
304.945
318.64
312.076
310.478
302.255
228.106
329.574
326.168
58.4082
325.811
270.898
275.812
270.079
242.568
177.421
200.238
298.428
269.103
191.556
309.784
282.455
90.3038
203.517
266.879
253.602
80.3966
134.275
165.637
278.19
296.554
307.512
277.859
59.0313
223.962
312.656
313.572
61.4347
140.759
53.3853
185.945
156.341
300.614
167.034
162.01
180.162
183.045
312.746
293.402
279.698
304.211
328.418
210.74
242.117
157.985
89.32
159.647
315.8
132.42
197.052
150.82
171.597
60.8563
129.198
236.228
54.2725
281.224
313.276
311.784
309.009
304.245
304.567
162.492
205.467
60.108
326.935
218.061
262.726
181.643
54.2916
192.993
119.859
263.136
114.358
159.318
251.697
272.106
70.121
330.247
301.029
79.4681
327.351
297.557
94.1044
261.516
325.354
81.3733
254.539
110.772
301.18
255.737
304.982
305.457
323.621
325.775
327.446
313.236
326.556
201.091
253.437
204.383
296.573
275.211
250.743
294.528
309.358
311.26
304.617
254.706
277.958
63.6913
101.919
244.485
89.3038
274.437
90.9318
273.811
51.1392
86.2991
138.817
224.017
267.876
85.9042
178.361
227.166
185.393
330.872
331.068
324.102
225.233
265.23
212.544
302.65
215.125
325.874
178.286
139.173
175.959
265.351
285.73
266.072
213.941
291.125
274.373
180.424
324.184
309.357
259.067
90.7833
251.159
262.234
271.106
86.4434
256.92
63.1717
274.561
293.139
102.009
240.78
81.9422
230.23
289.482
295.343
87.4681
166.772
239.376
91.3737
205.519
324.034
178.166
312.057
251.721
90.0663
197.125
184.525
159.509
170.304
177.024
137.725
173.503
230.455
183.692
195.677
309.645
306.771
311.447
326.222
123.513
90.8619
193.418
170.936
326.149
292.834
49.7668
289.048
203.241
324.755
309.538
174.776
171.073
212.322
221.223
299.216
63.9581
276.711
327.455
153.151
169.51
116.456
289.147
305.553
315.968
263.817
266.682
128.221
255.113
257.576
312.007
120.511
312.652
279.02
257.046
252.94
269.09
328.382
269.322
154.934
303.475
302.512
204.258
328.647
253.69
261.54
314.412
246.952
260.54
263.934
330.462
231.736
273.133
199.448
217.676
269.968
297.766
308.421
249.449
302.784
199.964
229.922
261.72
238.579
266.962
268.245
210.847
180.78
172.311
199.692
180.78
173.088
175.261
59.7364
66.008
269.644
98.2321
254.452
57.7713
256.589
106.916
306.185
315.299
269.248
195.568
145.214
98.796
324.465
308.386
304.627
269.125
250.166
225.661
106.895
170.726
150.026
190.883
329.081
242.025
305.199
232.07
264.38
187.802
302.412
264.81
253.507
135.643
157.046
304.646
199.744
208.192
168.581
165.089
153.152
325.258
137.479
202.231
189.673
180.713
265.474
241.399
196.201
187.294
164.928
193.537
48.1881
265.562
272.628
66.504
286.698
145.321
191.101
313.182
323.903
301.009
320.014
200.312
229.162
213.08
211.481
221.893
236.031
320.888
186.931
150.634
327.618
222.937
309.631
203.596
204.104
230.588
199.953
203.14
154.043
317.771
324.546
325.196
330.31
192.023
303.332
90.4516
83.1575
174.436
198.955
80.1397
193.711
196.571
170.588
122.234
143.905
258.812
269.112
303.039
320.652
219.09
317.936
326.357
330.762
208.449
162.149
188.636
201.921
286.857
263.802
273.771
298.711
57.8082
268.504
298.681
296.346
56.1685
266.951
55.4465
87.6299
298.991
277.775
164.993
329.554
331.136
328.962
189.739
324.807
331.221
330.283
308.986
300.282
87.1581
74.0153
328.198
308.717
301.4
177.626
326.82
203.882
257.513
131.184
232.133
57.0541
241.857
195.01
165.509
160.369
235.118
173.127
222.19
167.041
158.348
254.48
300.671
260.239
306.65
195.405
193.019
307.999
247.413
158.927
189.116
261.482
164.524
307.872
187.077
284.558
301.452
266.738
61.4748
304.019
308.008
234.474
240.363
301.183
310.487
161.474
239.848
221.691
97.0163
225.57
242.505
151.588
89.6336
160.599
174.477
175.123
329.495
253.489
301.745
160.084
321.096
221.19
281.049
172.699
76.5548
326.412
164.463
328.089
330.751
299.051
332.043
330.524
283.734
248.015
261.907
246.408
325.813
201.439
222.368
302.479
194.902
223.42
215.21
258.907
92.3573
206.013
251.653
299.231
224.907
205.693
194.303
175.72
252.732
61.594
323.327
267.637
80.9022
310.597
207.518
327.585
94.9233
121.829
272.053
275.6
293.119
70.495
255.364
250.141
162.29
304.771
314.18
326.111
75.8784
264.732
168.685
262.586
115.91
290.262
288.308
109.49
287.467
308.201
157.621
329.789
308.929
77.3626
261.908
86.3916
293.76
58.935
261.926
70.7999
95.696
318.489
178.204
219.733
318.426
250.195
308.266
238.999
93.0042
248.801
210.874
214.697
327.895
227.107
45.9295
156.103
235.74
65.1103
316.658
307.289
56.0073
206.185
263.055
116.423
319.624
260.212
326.52
170.885
321.362
184.935
252.46
264.721
265.624
285.958
298.498
69.3463
265.797
198.611
74.2658
261.605
258.846
198.22
286.581
85.2517
296.907
290.506
291.546
298.537
274.308
312.806
281.587
130.765
91.6687
321.13
302.369
317.892
48.1291
219.949
51.9996
67.8884
224.199
310.805
319.901
317.32
253.552
279.601
280.45
181.962
153.786
159.019
305.69
222.551
57.9558
81.7816
273.501
194.229
286.854
315.368
249.257
321.724
213.919
100.264
321.579
178.085
250.82
174.155
210.351
181.273
102.495
101.018
101.488
176.767
197.719
142.255
174.167
298.563
328.892
164.82
172.154
202.203
200.841
203.584
174.642
198.968
328.006
104.342
133.62
259.942
156.987
306.132
117.818
298.05
54.0383
293.845
104.683
276.092
64.1478
302.695
253.753
76.8002
264.93
275.141
235.709
165.789
184.565
328.371
329.217
303.924
318.013
303.968
302.811
256.844
57.3658
173.817
180.729
330.047
327.887
313.887
301.418
306.195
293.366
305.145
254.847
219.989
180.295
329.241
145.891
190.446
106.623
183.572
207.987
299.122
284.299
84.9777
134.214
136.586
208.218
248.225
159.635
276.75
262.797
250.385
163.223
65.9949
161.089
154.703
309.815
148.39
195.05
157.979
200.182
58.4437
184.565
313.383
321.06
302.741
300.626
304.406
327.244
226.089
301.022
173.09
59.8817
105.957
62.1049
110.342
229.694
196.017
68.8766
312.055
278.029
325.139
55.5652
260.558
257.06
265.755
261.176
232.028
208.958
303.22
161.329
284.499
289.931
78.4357
244.647
100.956
126.511
78.9423
70.6451
325.662
326.167
209.945
311.763
260.413
267.022
273.977
325.425
300.492
272.462
182.442
218.617
183.234
145.831
179.885
214.199
269.496
276.304
129.931
265.934
275.28
219.487
266.169
274.8
306.209
302.872
72.6241
301.37
61.6515
323.727
323.554
243.393
330.592
278.838
245.411
329.898
317.413
150.555
329.686
220.267
322.555
196.127
255.711
312.916
133.547
209.701
272.116
258.18
48.7273
326.156
55.8295
233.22
134.769
120.975
242.17
199.183
84.0138
177.068
256.456
233.412
327.706
310.521
302.6
175.616
216.637
285.912
306.63
170.592
196.431
139.526
171.46
206.54
138.316
326.196
83.5386
153.099
309.717
164.132
262.571
49.3388
264.879
327.669
278.401
272.498
303.108
307.002
300.989
264.159
248.163
252.569
189.925
329.715
216.828
161.038
168.732
141.756
180.445
231.621
302.052
318.218
172.33
183.399
284.312
303.574
100.246
329.389
222.463
248.826
56.1046
312.454
329.789
301.375
329.621
305.155
329.387
305.072
304.125
319.246
304.96
160.521
232.996
67.4662
227.236
261.11
72.6885
62.5179
267.112
267.273
318.5
309.327
167.298
186.245
330.32
161.813
159.858
180.61
323.219
263.164
315.253
224.944
225.164
180.479
328.811
322.92
316.212
153.498
265.657
67.1316
106.807
321.318
178.505
265.208
316.241
260.196
327.408
189.548
326.527
328.503
171.306
196.47
169.788
328.001
84.0914
329.927
177.568
322.55
223.797
301.858
309.294
320.597
226.507
255.561
241.581
301.791
319.172
302.101
303.694
159.238
167.855
207.208
188.478
137.732
48.1497
286.698
267.885
274.163
219.214
155.338
330.062
256.477
189.693
202.837
168.793
273.839
256.769
325.758
326.571
329.63
321.377
167.135
187.839
273.656
326.696
308.068
320.826
300.524
324.444
194.407
59.5965
327.91
173.686
192.649
279.352
283.715
277.583
82.5954
280.282
289.194
267.536
266.005
178.346
293.927
287.844
271.851
187.484
231.341
256.432
278.044
304.431
328.062
325.661
208.143
197.969
201.525
258.044
306.423
270.795
252.994
307.858
316.763
312.984
260.38
229.388
197.328
81.3323
219.112
263.079
307.066
242.392
168.356
301.099
252.495
196.125
312.315
295.922
233.463
272.396
306.511
165.793
304.477
308.066
251.744
140.584
226.154
256.651
186.144
316.165
310.111
328.7
179.748
291.348
317.928
143.671
177.853
330.544
155.925
80.9797
302.231
317.64
326.351
316.183
149.572
330.974
169.828
198.603
53.2071
273.536
296.709
156.206
305.31
318.254
296.35
170.227
255.137
321.176
329.13
324.675
305.543
266.409
179.838
214.997
176.589
196.115
313.197
329.761
59.8654
200.289
293.178
295.214
289.399
231.321
204.978
329.578
99.4289
241.904
174.909
184.945
322.288
311.982
192.786
221.405
88.2988
262.855
105.373
243.67
188.224
168.899
142.462
271.93
77.8944
137.072
128.58
312.875
156.443
269.443
217.661
94.1951
220.217
156.212
162.036
205.002
310.207
305.47
224.334
319.785
182.307
181.815
80.5083
173.41
186.143
207.435
208.32
164.262
145.842
213.105
181.448
187.659
167.081
164.424
186.819
302.316
327.188
216.378
154.698
260.323
316.091
230.924
268.167
143.756
166.51
160.195
136.255
206.377
259.568
205.864
313.779
159.423
213.688
326.29
222.621
192.877
210.812
160.134
141.76
184.108
287.771
255.342
321.428
327.108
182.074
187.458
240.192
158.872
166.069
84.5972
258.797
302.983
253.79
285.876
265.549
270.217
262.317
305.996
327.85
208.262
261.457
189.048
319.034
306.543
313.105
289.135
311.073
268.27
270.589
294.164
168.97
57.9531
245.247
201.488
253.984
63.9197
260.09
196.662
275.39
90.095
275.582
285.397
201.172
131.441
259.273
298.12
103.692
61.8589
327.543
311.804
254.877
257.258
123.45
174.878
252.079
305.405
187.89
201.047
228.667
278.097
256.653
191.268
266.653
121.85
300.306
329.195
327.82
328.882
292.912
329.961
93.3382
100.693
329.915
258.935
171.437
182.195
192.602
244.889
196.41
309.335
255.282
321.43
241.679
105.985
263.899
306.176
164.737
61.5318
327.733
189.316
241.834
208.172
206.196
178.672
77.7653
214.631
320.201
329.849
82.0539
141.492
325.925
99.4167
258.894
76.1117
256.76
184.498
109.065
196.807
198.33
293.659
328.319
313.041
305.779
329.506
307.782
326.207
263.791
310.796
320.996
208.021
130.86
181.972
249.887
71.3055
238.313
177.088
255.12
177.403
160.756
260.492
183.219
174.989
171.096
326.027
185.785
261.822
107.832
79.5184
97.8127
280.644
328.028
259.607
274.627
211.467
254.523
70.8362
257.301
266.019
111.54
166.798
169.337
51.2343
68.7831
229.814
175.841
52.0444
164.558
302.283
178.282
95.463
190.605
302.062
324.971
228.305
229.115
174.657
153.675
202.698
330.757
196.44
156.709
317.106
263.488
321.404
256.918
329.696
329.224
235.822
254.293
75.9581
254.005
264.983
229.328
215.689
273.521
270.522
83.9583
125.105
64.5502
82.2399
268.517
169.543
327.41
264.658
257.398
102.319
329.782
275.643
310.199
311.98
297.932
244.193
194.536
252.368
92.3268
214.879
246.847
292.385
227.402
52.3838
275.218
285.071
329.642
281.962
176.231
132.431
52.0722
219.245
232.754