/*--------------------------------*- C++ -*----------------------------------*\
| =========                 |                                                 |
| \\      /  F ield         | OpenFOAM: The Open Source CFD Toolbox           |
|  \\    /   O peration     | Version:  2306                                  |
|   \\  /    A nd           | Website:  www.openfoam.com                      |
|    \\/     M anipulation  |                                                 |
\*---------------------------------------------------------------------------*/
FoamFile
{
    version     2.0;
    format      ascii;
    arch        "LSB;label=32;scalar=64";
    class       volVectorField;
    location    "2.08459e-06";
    object      U;
}
// * * * * * * * * * * * * * * * * * * * * * * * * * * * * * * * * * * * * * //

dimensions      [0 1 -1 0 0 0 0];

internalField   nonuniform List<vector> 
49294
(
(398.555 -189.217 1845.13)
(-73.4893 -509.421 1915.75)
(516.743 -29.1521 364.009)
(329.586 1221.41 1212.2)
(-898.492 1827.83 1630.64)
(438.234 509.974 279.951)
(55.57 -138.8 624.562)
(882.408 -304.099 2796.79)
(80.9557 -52.1228 159.97)
(12.363 15.7282 39.1683)
(1534.32 289.171 1202.72)
(4.77143 71.4197 27.232)
(-4.08649 21.5381 2.10844)
(1710.08 -924.869 1310.02)
(11.8545 36.9742 14.0769)
(88.1622 84.5419 57.0477)
(0.330145 -391.442 265.343)
(181.661 -748.239 726.963)
(124.878 -238.705 50.3208)
(1778.35 -101.792 2249.36)
(47.7854 80.8545 43.307)
(-26.8242 -60.5383 42.8421)
(649.299 -126.395 357.839)
(341.291 -78.5458 160.664)
(-6.10506 74.6527 49.4688)
(-47.0439 -7.34617 4.68222)
(-63.5101 -346.14 159.013)
(-586.963 -199.81 687.89)
(-419.815 -1591.73 1917.47)
(1134.02 -1139.54 1013.59)
(-33.2009 -31.1788 15.257)
(-32.2493 -41.8644 9.90159)
(1431.85 -1172.08 1420.01)
(-66.3212 -73.9216 43.7036)
(495.608 -1021.66 852.732)
(-36.8944 -28.9848 17.8214)
(583.824 -1792.43 2071.76)
(113.522 144.152 46.3997)
(-43.0703 -66.4795 1.84031)
(-31.3031 -1101.2 562.825)
(517.223 -329.793 204.622)
(-49.4115 -31.3854 25.1782)
(1410.7 -299.452 905.321)
(479.941 -85.2629 2854.93)
(3.1002 71.1572 33.6878)
(19.5069 63.0016 45.5067)
(15.1419 -895.703 433.343)
(-39.4452 -183.91 119.769)
(879.978 1.53126 2831.37)
(1585.37 -444.539 1573.42)
(166.78 -1222.12 934.455)
(-29.1615 -582.561 287.143)
(39.8789 -948.377 2677.18)
(-592.033 419.731 2521.12)
(1004.33 895.224 1664.91)
(631.229 -381.387 863.62)
(-3.47405 -58.1631 29.2588)
(112.42 11.8881 622.613)
(-46.7141 80.9318 263.048)
(19.6735 49.0605 393.01)
(-223.356 659.228 207.051)
(-73.0107 62.5751 250.377)
(36.2237 16.0413 30.5589)
(886.039 -122.516 703.107)
(-824.937 -1523.61 2306.32)
(117.42 -112.296 141.943)
(119.947 -10.4417 58.8108)
(301.731 -487.578 236.329)
(31.1812 -755.898 408.788)
(743.916 -404.338 473.038)
(193.292 -27.4746 75.6528)
(-60.0844 -130.914 2601.33)
(1121.75 -980.751 1327.45)
(22.1748 -202.486 105.773)
(-33.5938 -45.3036 15.4555)
(-1.3414 -67.5999 30.2928)
(215.607 -164.175 392.852)
(-65.6725 -54.4158 35.5957)
(-51.0447 -180.102 99.2339)
(652.469 -535.123 290.228)
(-43.9578 55.6559 4.28609)
(779.946 -734.167 448.786)
(6.00788 -776.964 276.087)
(-1211.73 -238.141 1110.18)
(-2.97736 50.4585 14.3052)
(-14.2531 64.8788 27.6864)
(-47.0581 28.701 25.6822)
(6.53145 -637.314 352.537)
(219.483 -233.928 106.814)
(60.5802 50.9249 65.9732)
(215.176 79.988 98.7827)
(621.609 -684.778 2408.13)
(-55.3062 -1521.27 1175.35)
(-378.083 -1385.01 1438.27)
(-3.04899 523.921 109.921)
(1777.77 -291.837 1545.57)
(-27.3911 -320.258 78.4086)
(-5.48779 -68.3744 15.9029)
(-858.991 -165.707 2152.68)
(-687.641 -186.667 250.861)
(62.6069 -188.109 139.05)
(2.73107 -528.539 275.606)
(-1290.09 -595.989 1307.37)
(-74.9573 -154.38 77.3861)
(-499.949 141.219 2445.29)
(1456.19 -1248.02 1951.37)
(-44.929 -399.566 181.012)
(215.897 -707.969 453.215)
(-772.705 386.568 2446.35)
(142.473 -565.614 120.196)
(-170.516 -182.157 71.4252)
(3.08615 -1365.86 2586.64)
(-23.1246 -60.675 9.84473)
(-74.4468 -386.618 125.402)
(6.16112 8.37979 21.4854)
(26.3348 -271.911 22.3352)
(-10.3496 -157.424 52.1271)
(425.555 -517.221 2740.84)
(-5.30031 -62.417 10.5755)
(68.2278 -133.205 650.232)
(48.158 -241.757 30.274)
(-959.236 1465.61 1123.07)
(514.584 -1440.73 2552.81)
(1503.57 80.808 2474.48)
(-61.631 -1300.26 626.83)
(1189.06 -309.548 2714.31)
(-2.7437 -169.647 193.595)
(-34.8319 -219.472 74.8443)
(0.250391 76.4149 17.8726)
(118.384 635.327 252.472)
(638.508 -1318.04 1340.34)
(-696.137 -102.843 218.755)
(72.4861 -685.132 301.125)
(22.0917 -210.62 34.4696)
(-384.809 -1874.86 2135.64)
(1.26513 124.774 379.964)
(-17.6539 42.2761 166.195)
(0.0291563 -136.559 77.9967)
(-5.31072 -116.129 59.7292)
(-19.1789 -53.4742 39.7244)
(76.7983 -132.082 696.048)
(-82.8382 -198.028 71.7903)
(75.4372 -128.831 698.743)
(13.7952 -147.559 80.1123)
(-51.48 85.5593 256.584)
(1539.7 -166.936 985.665)
(1004.61 142.306 1235.73)
(52.9945 -1167.99 503.301)
(-32.1321 -44.6126 3.23119)
(-27.2238 -60.131 14.3954)
(-27.6615 -50.2069 7.60435)
(-635.485 573.016 2397.41)
(-34.4857 -56.9831 13.1335)
(-37.9154 -77.7948 11.6101)
(645.088 -804.845 2779.23)
(25.1842 8.1152 179.711)
(39.3228 7.41958 154.156)
(41.1163 12.2671 162.832)
(50.519 20.7825 180.863)
(56.9336 12.4236 231.957)
(44.2002 20.7869 259.241)
(39.6628 0.928247 161.454)
(24.9885 6.61761 186.243)
(86.6785 2.39966 275.298)
(-348.159 17.8982 256.654)
(83.1242 -124.535 521.579)
(89.2798 8.22333 293.083)
(54.2969 8.65659 223.611)
(35.2007 -11.1672 222.556)
(90.689 27.9969 406.783)
(43.2487 2.67365 389.3)
(1.97966 -2.28753 435.854)
(8.70091 2.16257 299.414)
(142.977 18.2609 432.448)
(22.799 -17.2105 295.33)
(75.5936 17.1951 232.178)
(697.652 -386.399 2747.58)
(28.7139 9.96297 274.438)
(47.4133 -125.231 704.399)
(37.8735 0.129778 161.506)
(29.1206 -0.191739 426.378)
(32.4878 8.22211 330.859)
(24.7733 -3.26999 216.186)
(4.10442 0.384056 303.775)
(93.7124 36.984 369.781)
(61.0979 -18.9348 199.178)
(13.5527 29.2507 1.4216)
(93.799 -24.1262 279.371)
(13.5635 3.78387 236.258)
(77.4398 22.0857 237.86)
(104.379 -10.3209 326.104)
(20.9808 8.06576 316.863)
(32.7469 -50.8588 324.438)
(132.515 83.8883 493.608)
(71.4075 66.1376 334.013)
(64.4785 74.3727 281.877)
(4.82541 9.35834 328.593)
(57.7595 -114.891 675.855)
(41.7666 5.83784 221.107)
(90.3936 51.1213 260.276)
(15.156 23.2912 277.607)
(12.936 -10.1833 363.778)
(46.9903 6.31197 183.039)
(14.8526 1.66492 240.606)
(20.2386 18.6749 403.428)
(75.4935 -54.7493 270.953)
(70.9449 24.2571 228.426)
(29.912 13.2384 177.027)
(-100.19 0.324169 136.73)
(8.32657 4.76323 298.852)
(-174.574 267.189 123.215)
(-932.482 101.102 505.742)
(-115.167 -2.34415 64.9585)
(7.87961 6.34648 281.959)
(0.510969 0.5845 372.759)
(154.262 -1637.45 2053.13)
(24.3081 18.4932 311.761)
(89.2747 64.7385 273.885)
(10.0832 5.70644 239.442)
(65.4319 46.3403 219.281)
(113.059 20.3454 626.646)
(-0.195812 171.982 526.265)
(71.8406 30.0098 331.844)
(22.9427 -7.52113 355.632)
(46.8273 23.9854 181.241)
(9.76093 5.66132 293.011)
(14.3732 -2.75928 275.911)
(50.3337 -22.6359 180.621)
(97.4503 74.3865 295.086)
(10.1475 4.06937 245.204)
(36.9514 21.496 217.357)
(1.59507 0.408289 420.324)
(26.6287 17.1955 176.534)
(29.9409 24.4836 167.3)
(37.9974 18.8314 159.663)
(80.8334 105.063 332.238)
(64.8012 26.7424 217.297)
(35.2284 44.5837 208.937)
(51.4969 52.3459 222.13)
(42.8446 54.446 233.581)
(16.1149 25.2267 238.719)
(3.94692 -3.60044 368.667)
(28.5412 2.88905 174.095)
(153.342 18.9761 548.669)
(51.7786 17.7046 216.165)
(38.3565 15.0994 162.987)
(64.1721 70.9367 276.463)
(2.46853 58.482 380.845)
(24.0505 17.374 179.736)
(61.2097 120.448 486.203)
(11.9698 7.23051 354.232)
(14.8663 13.6346 291.16)
(-45.2313 -17.3734 319.365)
(10.7429 90.1241 442.722)
(11.8282 27.9114 287.157)
(51.4458 28.0007 337.514)
(102.423 -37.8317 663.331)
(90.1419 70.323 316.716)
(16.8988 21.9588 294.481)
(-1.02444 1.40384 432.044)
(2.83803 38.5762 453.344)
(0.404572 1.16119 440.464)
(11.5482 5.00195 233.619)
(50.3271 -37.921 232.375)
(123.269 15.8023 362.174)
(65.0809 23.9938 197.249)
(-2.66523 -2.52924 332.721)
(37.9978 12.7518 233.483)
(53.2287 10.0811 217.526)
(72.0756 -4.75015 323.168)
(143.445 -60.8066 503.684)
(27.5572 47.3618 414.702)
(59.5944 65.3281 339.44)
(116.926 78.7977 348.978)
(51.5737 -135.947 637.735)
(62.6354 77.4424 264.612)
(91.5187 -24.5566 274.845)
(63.8647 65.568 244.462)
(19.149 26.9268 269.078)
(6.13063 5.70007 402.259)
(121.309 -27.7163 369.715)
(2.0414 -0.73592 396.426)
(14.346 9.18193 366.049)
(109.091 51.0068 301.918)
(-1574.69 -1104.99 1432.77)
(33.5321 5.45332 244.825)
(75.2736 -49.5551 282.689)
(49.0285 16.5497 304.955)
(38.4916 -5.59842 152.29)
(30.7291 14.4507 285.623)
(39.9499 12.3296 222.375)
(37.3503 34.5834 184.654)
(1.04576 -0.458186 369.22)
(63.0183 -4.03427 299.259)
(93.3544 42.2987 366.821)
(74.3325 74.4835 270.856)
(65.9195 -10.2138 297.345)
(95.7697 44.2167 296.049)
(-210.018 -37.8569 2196.36)
(135.621 -82.0911 597.661)
(167.469 4.23962 500.396)
(72.0159 -50.0866 482.554)
(113.474 -27.3549 344.454)
(-1.23571 158.219 800.661)
(1.17202 1.4945 413.886)
(8.85998 205.212 726.65)
(-93.2271 128.463 727.047)
(120.574 38.3513 485.575)
(160.104 30.5429 561.861)
(52.8986 104.444 664.775)
(-14.4827 -116.628 796.346)
(-188.786 -21.1422 685.132)
(-1.7017 47.5887 491.121)
(-1523.19 22.9696 1739.39)
(-15.3343 120.057 362.782)
(79.4716 35.0906 264.887)
(113.592 74.7822 324.809)
(108.273 -46.1803 291.837)
(70.8591 23.0458 232.066)
(-0.808881 -9.26348 429.789)
(44.3621 27.7476 177.601)
(-84.2704 -63.1409 584.705)
(105.165 99.4818 346.202)
(-103.481 90.6465 447.105)
(1.69842 -0.118591 337.415)
(6.49865 1.40693 323.66)
(-2.59206 -139.82 440.184)
(15.2507 0.761192 279.404)
(9.07471 7.06046 390.803)
(132.606 81.9208 433.422)
(74.4973 37.1301 444.392)
(43.557 20.5714 368.396)
(-145.685 -54.273 578.193)
(-1667.01 64.9747 1501.13)
(113.025 -529.621 1873.83)
(81.8956 -56.1321 431.941)
(23.4661 1.6866 447.687)
(105.371 0.877289 313.328)
(123.712 24.2534 369.92)
(27.0883 7.11969 352.11)
(88.9949 87.4358 678.91)
(26.2959 -17.2474 269.707)
(113.534 51.5205 326.202)
(139.348 6.30827 413.213)
(35.1179 -100.398 802.209)
(134.267 35.0785 503.407)
(0.449966 -0.867123 440.264)
(62.8514 -70.4671 237.892)
(-7.32538 -55.8042 709.995)
(-110.352 -30.2574 493.922)
(11.796 2.3842 415.991)
(72.0963 22.8898 258.71)
(116.706 106.694 476.334)
(32.5481 -33.0339 462.747)
(123.862 13.4848 482.414)
(57.9747 89.138 496.155)
(-31.9676 109.774 470.353)
(-100.146 97.7329 334.733)
(-18.7452 -18.4746 343.23)
(100.515 -9.9704 458.759)
(13.3883 19.7576 387.674)
(107.925 -81.4037 323.291)
(88.8974 38.3262 266.119)
(52.482 13.0727 595.046)
(23.4567 80.6327 422.036)
(169.796 -7.94217 513.511)
(-54.3868 122.009 353.327)
(52.3356 122.042 356.883)
(4.26828 169.989 527.339)
(21.7084 131.049 429.221)
(12.6696 113.912 449.526)
(6.48975 170.395 588.833)
(-0.211094 3.02392 340.679)
(59.8381 118.166 446.269)
(-10.9548 -123.231 586.152)
(43.9726 -19.6172 344.396)
(62.8686 98.6641 291.572)
(21.136 89.2275 268.379)
(-1166.94 -100.478 943.386)
(-31.1048 -150.577 518.233)
(10.6258 83.7768 318.533)
(-7.04839 6.60973 301.737)
(33.3184 29.2192 476.023)
(-40.7979 0.919218 219.469)
(87.239 68.9559 620.223)
(-1370.02 -23.4563 1700.28)
(-0.713555 -6.72345 401.517)
(58.7582 137.92 420.437)
(7.12811 97.3565 394.546)
(119.775 91.3844 457.213)
(30.6342 159.57 523.187)
(-23.6975 131.145 395.419)
(56.2321 -113.375 507.465)
(-58.8111 34.7192 312.508)
(33.9653 130.577 654.18)
(6.16626 191.324 640.644)
(-8.03943 93.4148 293.324)
(89.4578 67.4582 327.198)
(-205.624 1.29556 698.322)
(19.6647 16.0505 235.902)
(228.361 298.997 2016.92)
(121.944 4.3791 511.949)
(11.5882 -478.787 1908.22)
(-19.1039 166.28 608.843)
(55.4991 33.7973 404.459)
(86.5321 -74.654 329.953)
(107.561 -31.6851 328.358)
(4.27417 3.40518 386.559)
(-62.0781 123.832 366.366)
(135.655 61.1438 617.626)
(-0.943183 23.8172 409.572)
(47.6384 40.9077 424.434)
(54.4457 140.773 547.847)
(-281.806 -86.6147 1760.14)
(-126.535 -34.3463 565.555)
(-12.4992 172.861 733.069)
(-97.612 -7.04597 383.724)
(-133.055 -63.8701 666.404)
(7.49387 29.0195 1174.44)
(-117.616 99.8176 587.41)
(-260.571 -326.025 1885.24)
(28.8991 110.838 584.795)
(49.3282 130.132 491.029)
(-0.384904 1.10431 408.222)
(53.0917 44.663 447.612)
(42.3495 129.926 409.542)
(-75.7006 33.2006 526.203)
(198.279 223.793 90.0961)
(3.26697 -3.35445 271.67)
(-31.2285 27.1783 1686.83)
(49.8123 160.125 676.808)
(-430.746 181.421 1919.1)
(103.925 104.931 710.071)
(188.118 5.39773 629.694)
(11.7097 -151.099 504.019)
(-109.725 115.55 522.683)
(-73.4065 135.797 834.244)
(4.79506 74.7746 313.605)
(-41.903 -36.5701 385.233)
(-25.343 13.1167 320.057)
(206.535 -197.402 907.519)
(-69.8965 136.003 651.857)
(101.804 -131.07 498.841)
(-77.3129 -24.1251 404.037)
(47.5215 -29.6307 297.623)
(-99.1977 79.1889 296.126)
(8.55885 137.875 429.403)
(-7.21795 55.9738 212.606)
(-83.8916 33.5501 246.329)
(-96.7331 -104.429 365.404)
(-0.236514 -60.4945 437.993)
(53.9971 110.393 443.052)
(-73.3561 -105.095 331.814)
(86.6955 -44.1759 494.274)
(72.6846 68.2931 257.777)
(-4.38497 104.242 457.653)
(13.7987 18.3949 262.861)
(79.4993 96.2249 350.314)
(-43.5646 -117.712 414.572)
(147.894 37.4655 447.624)
(-7.06654 -15.4113 815.965)
(-92.0199 -114.911 736.811)
(125.386 47.3154 490.124)
(116.648 28.7082 333.539)
(39.5296 -26.563 392.69)
(8.10132 -17.6661 306.605)
(189.077 0.982059 628.492)
(-25.6287 37.4469 403.657)
(118.814 70.4442 360.117)
(0.780154 11.2805 377.428)
(-75.0953 13.5962 441.997)
(-143.36 -64.8481 479.698)
(6.57465 18.2639 357.596)
(77.8574 110.826 435.067)
(1.29495 3.31726 421.873)
(0.0799936 1.39704 378.768)
(115.937 -46.7246 355.254)
(34.7118 16.9982 402.801)
(-73.3903 71.4518 415.832)
(23.2534 32.3425 369.933)
(422.706 -152.621 1837.69)
(35.7695 35.2167 403.625)
(34.3442 0.432265 242.264)
(86.9969 40.2107 274.649)
(-0.143829 -0.674032 447.319)
(55.306 47.4742 265.26)
(84.6178 25.8471 381.3)
(17.0237 9.76142 238.536)
(69.1666 58.5747 328.912)
(-1719.6 994.195 1740.6)
(106.987 48.5699 297.014)
(7.88088 1.30249 427.235)
(19.7566 12.9203 293.193)
(65.0234 70.4166 326.378)
(98.7329 82.5902 950.812)
(40.3242 -7.02693 477.832)
(2.94747 0.798113 277.867)
(-0.729196 0.111959 437.215)
(16.7913 38.0125 375.006)
(39.8292 73.3621 272.543)
(12.8154 80.3927 398.652)
(35.2763 3.38913 311.26)
(34.4736 73.7903 408.19)
(90.4006 -111.05 393.579)
(39.2552 84.5527 360.788)
(118.441 102.674 469.169)
(5.32939 2.57841 302.039)
(25.309 58.983 289.106)
(76.3873 88.7399 291.975)
(4.5818 3.66529 289.231)
(51.0965 53.1908 220.599)
(1.40805 0.984285 374.582)
(80.3106 82.9627 315.766)
(40.0675 61.0222 224.457)
(80.1533 121.468 348.511)
(89.0745 62.8067 295.173)
(73.5042 32.1312 232.885)
(69.0281 82.9782 353.047)
(58.7224 61.1202 264.381)
(16.2286 40.6223 224.147)
(5.03041 64.243 390.397)
(95.3317 79.8289 649.334)
(80.7039 94.0957 298.363)
(36.6547 -8.15539 410.734)
(31.2739 85.1735 247.747)
(19.1298 59.39 326.489)
(34.582 112.85 406.498)
(79.3443 -43.4612 355.749)
(18.1875 31.7605 217.968)
(-136.907 -39.5566 622.987)
(89.362 91.8161 313.514)
(10.5129 73.7283 260.564)
(15.6764 5.13325 397.697)
(-9.97858 47.5754 427.271)
(73.551 54.3506 270.221)
(7.74918 35.1854 339.131)
(57.1681 88.6006 377.374)
(-61.7734 -136.412 418.396)
(0.806261 1.67238 379.562)
(-116.613 94.601 631.138)
(-87.326 128.914 517.109)
(22.0916 30.217 376.305)
(15.4143 4.23868 399.315)
(598.377 723.201 396.029)
(61.8887 83.8013 413.519)
(18.5807 30.849 314.478)
(26.6209 19.3248 282.153)
(240.739 11.7366 872.091)
(22.0271 38.6367 229.047)
(35.8332 86.2059 398.386)
(45.3577 124.82 366.901)
(9.58409 74.8388 568.023)
(-14.2801 23.5362 258.448)
(-14.8382 15.8408 308.647)
(0.452883 10.581 372.466)
(0.909834 1.01424 404.322)
(8.31733 46.6374 221.595)
(-3.14957 40.873 228.066)
(-4.50105 67.8396 361.78)
(17.0903 77.4389 380.067)
(55.8902 83.284 395.744)
(44.1605 79.4439 248.327)
(38.823 103.958 283.861)
(242.366 271.819 108.883)
(-1.09302 1.24845 382.4)
(-75.7326 103.739 625.426)
(385.173 445.188 246.447)
(104.421 77.9944 382.038)
(24.6029 81.4502 326.565)
(33.7977 65.27 237.033)
(-57.9278 75.5546 447.328)
(94.3593 124.395 414.874)
(22.91 69.002 314.669)
(46.2777 90.2665 254.412)
(35.7034 55.6578 393.541)
(6.96619 21.2747 352.131)
(20.8582 112.95 367.845)
(-88.8644 -658.469 2572.13)
(22.9093 91.2601 263.402)
(-48.7333 -26.5219 513.145)
(27.7086 105.982 301.519)
(-30.9832 125.685 383.616)
(10.1486 20.0316 327.572)
(24.7956 67.4369 222.317)
(-79.9433 131.966 511.654)
(181.626 198.872 84.5965)
(49.8695 100.32 266.542)
(107.864 -40.7937 491.304)
(69.9925 -26.4219 291.538)
(24.2687 51.8211 206.575)
(13.5323 43.8742 233.389)
(4.25379 31.5884 184.458)
(44.0527 118.095 318.44)
(-0.278203 39.6333 198.62)
(3.6354 54.1558 184.992)
(59.722 115.053 369.194)
(7.78204 45.5937 252.826)
(-53.032 -96.9899 307.8)
(18.5132 55.1835 318.223)
(14.0312 44.4213 233.343)
(7.20598 20.6271 287.356)
(2.90684 51.6584 195.907)
(-0.164038 41.8279 160.422)
(0.558829 106.851 326.743)
(-40.4299 77.0689 278.146)
(-7.17182 51.6005 420.544)
(43.2225 55.1245 334.392)
(-10.0575 -2.1088 393.027)
(50.3087 104.266 268.608)
(3.27236 3.77906 299.013)
(28.0105 79.0642 258.319)
(436.32 463.909 219.077)
(4.24109 4.37742 301.762)
(-13.2358 51.2207 332.83)
(-19.5563 87.3034 258.684)
(57.564 86.5038 271.143)
(-2.56762 19.8193 298.939)
(27.1371 90.5267 257.766)
(16.466 52.1395 512.432)
(958.139 964.65 539.098)
(3.34464 82.3727 342.407)
(11.2533 45.716 161.915)
(0.986152 0.398396 442.671)
(0.359826 2.83697 373.287)
(25.7877 49.5108 206.261)
(-5.75188 74.0606 284.311)
(303.152 -501.393 2357.86)
(28.3768 32.9166 225.827)
(10.5662 14.0711 215.901)
(23.0729 33.0101 262.803)
(34.9588 64.9527 217.597)
(39.0408 72.9461 234.532)
(38.6645 70.4575 226.037)
(8.26784 34.0403 185.084)
(17.9166 31.2819 154.35)
(36.9281 58.417 228.676)
(3.6952 24.969 280.617)
(47.1574 38.3945 352.326)
(-7.42094 61.5196 417.201)
(75.3046 114.424 489.383)
(31.6922 82.2104 360.423)
(18.9257 35.4601 231.266)
(24.4894 27.7997 218.332)
(7.99264 50.2274 373.315)
(-20.9979 36.4124 340.46)
(11.5381 24.796 271.325)
(1.01287 7.7247 390.948)
(28.0352 43.7866 184.049)
(23.1007 30.258 173.02)
(9.72235 15.7942 216.133)
(8.78239 0.62599 318.651)
(32.6076 36.5089 185.198)
(84.6954 -29.3002 450.352)
(16.3355 36.0032 157.734)
(7.94858 8.60741 232.713)
(13.523 16.8777 266.539)
(20.8191 48.6863 178.907)
(11.0633 -1.36795 402.522)
(373.223 -635.684 2272.68)
(50.9352 97.7291 323.349)
(0.900814 -0.444068 432.89)
(1.05072 1.14424 306.428)
(51.2895 93.6496 280.943)
(11.9179 40.6962 160.818)
(2.72635 5.07053 378.071)
(40.255 22.2865 461.54)
(45.6959 17.6014 379.908)
(94.5807 43.4904 289.632)
(245.979 -548.227 2343.55)
(391.751 -681.021 2288.31)
(-19.4287 57.9803 206.959)
(-77.3487 105.163 332.189)
(64.2089 55.3407 342.082)
(23.5044 120.755 340.794)
(67.7907 82.6109 277.543)
(48.9141 115.73 328.541)
(2.99214 4.57537 288.99)
(54.4599 12.7395 413.745)
(66.9003 49.7003 270.283)
(54.0278 47.7614 235.816)
(12.1822 9.58211 229.751)
(28.2326 56.024 237.835)
(45.3516 77.279 241.54)
(53.508 108.027 317.543)
(23.5157 49.8823 179.533)
(19.0197 59.467 206.966)
(17.3144 42.1915 211.055)
(11.641 35.4173 186.23)
(-3.68402 3.02713 341.992)
(12.6482 49.7677 215.481)
(16.1777 30.2079 260.011)
(6.09613 19.0708 261.291)
(-28.3037 68.5911 321.924)
(-0.943883 96.4838 302.761)
(4.73835 37.223 177.083)
(-1.10168 2.52376 317.377)
(82.0673 111.507 349.663)
(-1067.42 1321.02 2216.21)
(-19.607 57.5355 208.87)
(8.40619 21.3677 218.386)
(-24.575 69.8271 214.341)
(-0.793355 -1.4906 395.496)
(20.8348 16.216 304.418)
(62.4992 66.2806 328.675)
(-72.5893 119.033 386.38)
(3.19809 13.6914 294.228)
(43.3041 134.47 630.185)
(149.447 -32.085 477.804)
(-81.7089 6.58451 547.103)
(-71.5559 -27.2874 418.748)
(2.16693 4.89333 290.574)
(-160.71 -55.1665 791.034)
(131.05 -49.7204 377.385)
(-104.796 11.3159 437.283)
(8.97395 -1.91967 389.666)
(25.388 158.775 644.314)
(-412.621 -305.201 1805.93)
(130.968 120.988 764.309)
(-47.9263 101.361 288.164)
(-23.8195 138.891 410.832)
(33.0804 50.4587 413.888)
(70.5641 120.344 446.852)
(47.872 33.4369 755.305)
(162.142 -45.7677 601.671)
(-23.5492 164.025 588.438)
(-89.4363 105.121 660.691)
(27.8981 40.2428 217.546)
(62.3258 96.7499 288.838)
(-150.54 -29.46 490.026)
(64.6743 142.64 488.556)
(-85.7553 14.1133 268.693)
(74.9006 55.2202 806.043)
(75.6213 562.841 1878.14)
(119.452 26.5048 493.277)
(112.89 35.9381 354.518)
(104.608 114.612 447.448)
(-27.3368 13.0284 1368.98)
(-3.42957 10.4586 340.34)
(22.0957 121.222 421.269)
(-11.1164 87.5436 551.177)
(-160.445 -32.5686 872.238)
(41.0979 37.9532 410.082)
(10.6198 62.3464 214.675)
(334.525 -560.219 2300.19)
(32.3294 13.0754 170.704)
(32.4628 21.4353 157.687)
(22.4755 22.9496 171.463)
(3.22749 -137.045 54.709)
(104.243 48.7289 297.945)
(6.36558 17.2796 288.585)
(4.61713 -1.89597 272.146)
(20.5213 20.7118 175.779)
(118.637 95.346 515.508)
(-368.809 -253.93 1787.19)
(-288.829 -303.353 1784.59)
(294.184 -564.313 2292.12)
(-26.8279 -606.845 1944.78)
(-23.4832 -27.3897 35.7511)
(486.599 -131.034 2293.75)
(-5.66639 2.50599 1152.66)
(81.3553 558.572 1883.53)
(79.8807 281.609 1789.81)
(-270.996 -297.444 1883.62)
(-45.3077 -415.418 1865.93)
(-82.8229 -211.721 1005.48)
(-56.2586 300.929 1735.99)
(148.075 -118.34 863.715)
(240.205 562.692 2320.8)
(-582.778 166.555 1991.45)
(-542.29 -33.2182 2232.06)
(-17.2023 56.3186 533.855)
(636.781 -420.803 2030.47)
(16.1813 -203.273 691.549)
(6.56348 52.9455 489.768)
(-15.1158 50.4182 682.348)
(3.01371 133.963 418.212)
(-82.3627 93.5171 546.149)
(-28.7076 -136.531 2056.32)
(622.275 -18.1635 1921.79)
(58.1982 -489.755 2269.57)
(80.9176 -531.437 2094.39)
(-664.355 -123.031 2114.07)
(89.567 445.582 2335.07)
(-430.036 -188.159 1872.84)
(378.715 -529.777 2323.8)
(125.272 352.394 2375.73)
(257.189 577.376 2164.3)
(-62.9919 31.4436 986.543)
(58.5107 -559.172 2063.73)
(362.164 -615.892 2026.37)
(-178.047 418.837 1733.53)
(-709.848 252.583 2099.67)
(-625.107 -4.63746 2031.01)
(429.602 446.939 1966.03)
(175.727 -651.44 2007.49)
(-6.41445 -590.231 2263.41)
(-524.93 -106.551 2223.32)
(84.2147 -490.44 2090.35)
(20.6346 27.6073 39.7874)
(-439.514 2.6228 2378.55)
(613.416 15.4134 1914.36)
(13.7493 1.23073 350.698)
(-81.7677 -606.229 1961.37)
(12.1487 603.794 2031.75)
(119.589 31.9005 910.596)
(-617.279 432.673 2090.65)
(500.194 607.845 2184.84)
(-181.403 28.7872 1623.39)
(412.26 650.383 2146.13)
(-114.705 -67.0607 1570.3)
(-121.927 -400.829 1933.01)
(-454.255 -522.922 2153.22)
(-181.345 19.6424 1361.8)
(-551.575 27.5837 2068.18)
(-606.626 -188.598 1941.7)
(-22.8066 70.0871 842.382)
(-340.182 65.2991 2454.42)
(32.7206 126.275 894.98)
(-453.253 -137.983 1737.66)
(-81.1052 -536.746 1971.55)
(-423.487 -232.905 1926.96)
(-1178.81 -1014.98 878.653)
(-244.481 -280.165 1642.65)
(396.099 489.609 2037.47)
(-382.064 -220.148 1897.77)
(-564.997 -281.96 2110.82)
(17.0495 592.895 1842.06)
(-65.304 -32.8998 1184.14)
(-631.599 17.6593 1982.87)
(143.415 45.6162 517.953)
(-549.738 47.5465 1992.48)
(242.133 -292.711 1798.83)
(-305.699 16.1085 1705.24)
(19.9269 173.348 1353.79)
(-496.164 -219.954 2068.94)
(-397.577 39.656 1486.8)
(264.626 716.922 2096.29)
(-1.87686 262.033 107.387)
(-644.342 -339.434 2143.91)
(-279.37 -102.585 2411.55)
(-576.758 -21.9678 1906.88)
(36.6188 593.347 1837.91)
(-264.02 374.633 1819.87)
(-339.878 -428.911 2369.28)
(-555.284 -289.539 2138.36)
(-539.715 -563.312 2303.78)
(292.08 157.458 2008.97)
(-556.577 63.0135 2126.22)
(-314.91 -219.806 1938.35)
(-380.481 334.306 1951.4)
(430.577 604.049 206.564)
(534.413 371.636 1826.97)
(36.0899 49.2996 284.404)
(-613.1 -0.394774 1999.61)
(-459.065 -386.308 2186.89)
(6.26345 -40.0167 411.625)
(-303.269 -204.245 2241.25)
(-496.971 198.367 2053.07)
(-104.568 131.46 749.823)
(214.333 -606.758 2153.61)
(-38.01 140.092 1037.98)
(553.872 -74.8908 1822.51)
(344.597 -306.044 1896.36)
(-469.335 92.1625 1932.6)
(-159.183 -422.406 1879.36)
(-246.351 -419.838 1906.93)
(-553.124 -507.409 2374.62)
(353.46 256.228 2210.89)
(-205.594 -675.214 2137.18)
(128.422 -82.1534 646.639)
(-131.794 -486.288 1972.4)
(-349.368 -178.14 1545.99)
(-501.993 120.306 1833.56)
(-255.8 -46.7378 2360.11)
(205.708 571.542 1803.69)
(119.827 101.143 546.28)
(-427.996 -20.0474 2251.47)
(122.643 32.7335 494.937)
(68.1827 369.046 1821.57)
(-511.701 -538.787 2354.55)
(-7.01998 -24.6884 753.224)
(119.306 53.7328 744.84)
(151.805 -146.827 850.293)
(-187.272 -516.253 2069.72)
(-343.565 -300.273 1840.12)
(-108.777 -93.2686 494.033)
(-335.589 -299.633 1734.05)
(46.0955 -148.791 699.403)
(-202.626 565.567 1972.95)
(30.5394 82.6103 584.547)
(-426.816 -288.063 2131.98)
(169.406 358.148 1988.51)
(-18.3374 56.4527 807.736)
(-593.01 -364.113 2098.95)
(-240.153 261.753 1894.29)
(520.822 586.52 2060.62)
(333.481 153.808 2437.83)
(237.2 240.783 2353.56)
(10.5652 172.861 647.545)
(360.76 -167.952 2401.17)
(-519.356 -127.161 2121.54)
(-99.7896 -51.8154 931.8)
(540.803 -130.664 1854.43)
(-78.2021 -100.491 790.895)
(545.727 -520.748 2047.3)
(-443.041 -136.892 1827.49)
(-21.9492 20.8547 956.499)
(44.666 -539.276 1923.98)
(556.984 -83.9506 1992.04)
(163.819 -653.8 2106.01)
(-10.599 21.5547 311.674)
(-175.011 4.24384 564.752)
(29.9498 70.2958 349.094)
(45.1472 86.9588 431.31)
(-124.776 -569.49 2018.02)
(-109.4 450.205 2210.03)
(16.5215 142.922 609.87)
(98.9897 -106.465 601.641)
(53.897 -48.5235 390.02)
(-9.20765 -12.7855 416.817)
(-51.0623 117.467 329.559)
(-18.365 63.6211 454.112)
(-312.782 217.795 1522.2)
(135.595 77.5565 456.211)
(71.3991 79.5074 1028.8)
(-1.80612 73.9478 655.924)
(-75.8659 69.8848 433.171)
(-8.24698 39.1941 1297.19)
(158.175 -34.1631 654.786)
(-655.513 245.71 2306.19)
(96.2169 -101.888 665.486)
(-7.60879 16.7186 340.835)
(644.29 139.309 2071.53)
(-99.6595 83.3125 648.108)
(150.622 -21.226 562.158)
(-537.016 -507.492 2365.55)
(-32.7944 187.522 674.07)
(7.5197 70.9017 650.172)
(103.699 90.8885 604.257)
(-1.69335 -0.310773 374.266)
(-1.11673 14.4302 381.134)
(100.045 -80.51 805.441)
(11.7834 18.9187 383.428)
(-222.272 295.305 1885.77)
(45.4703 -62.6176 738.979)
(-85.8045 -415.261 1826.8)
(34.8033 -468.862 1940.31)
(-116.104 -82.1457 754.555)
(142.544 71.8458 536.669)
(-134.034 -92.9216 463.187)
(42.8585 31.2074 1763.32)
(51.3263 -48.0919 608.706)
(22.3972 -3.02694 1544.15)
(-538.855 -639.86 2437.09)
(82.6373 62.7879 559.652)
(-442.219 399.991 2463.69)
(-213.784 -359.614 1736.56)
(135.821 -14.9704 388.958)
(-167.643 26.9901 495.988)
(4.14426 194.707 647.433)
(242.82 16.8426 916.308)
(-60.3827 440.868 1841.88)
(223.291 -466.572 1972.46)
(163.192 93.2189 779.238)
(129.525 -70.8288 412.221)
(-79.639 37.3409 288.275)
(2.65508 -181.743 559.5)
(-147.234 -18.8472 2493.46)
(-32.8679 26.4107 374.828)
(485.383 239.671 1845.02)
(-165.807 470.642 1969.66)
(-601.323 131.944 1979.2)
(194.044 119.092 835.503)
(35.6929 -234.607 1536.95)
(-40.1016 127.095 468.483)
(29.011 -0.614362 1535.65)
(-497.833 302.631 1982.09)
(367.125 -960.551 705.35)
(-54.8111 114.774 861.195)
(533.951 -241.912 1888.48)
(-1457.71 -607.081 1642.4)
(44.9546 -608.563 1910.93)
(-500.876 -560.574 2316.92)
(-10.0335 177.405 644.18)
(114.367 15.7149 1101.76)
(-229.191 -369.242 1783.43)
(-161.521 36.7223 582.227)
(234.7 -43.4353 1999.33)
(-55.5163 -47.8233 442.041)
(-7.09915 240.483 1427.53)
(-621.766 92.6451 1912.21)
(-495.149 -44.8438 2113.2)
(-202.736 -348.707 2221.08)
(-137.817 13.6482 710.55)
(-360.893 105.45 2350.22)
(-232.214 -340.402 1742.62)
(48.3719 -161.985 709.294)
(-42.5048 -486.505 1843.7)
(128.733 -185.963 2302.57)
(488.473 182.924 1899.65)
(-67.5253 36.1895 778.911)
(-225.426 61.7001 1629.13)
(-39.9161 -86.6801 1373.73)
(-68.0155 134.952 424.193)
(586.144 -73.1237 1873.28)
(-468.355 134.408 1746.5)
(162.881 48.9129 661.255)
(-42.1821 -31.9252 237.725)
(40.6311 264.414 1809.26)
(-397.218 -183.112 1629.77)
(-565.421 -289.824 2151.46)
(-447.931 266.407 1870.4)
(-87.2709 453.194 1686.86)
(177.985 59.3504 2515.33)
(507.016 -481.672 1917.32)
(-3.40435 26.3287 302.522)
(-1351.96 -1219.1 2237.69)
(-65.8404 -402.76 139.096)
(-824.654 -61.537 367.009)
(-1036.87 -1335.41 2318.59)
(-573.275 -588.28 2255.44)
(-97.3188 -62.0511 223.622)
(877.045 -894.582 1834.3)
(-210.518 1212.52 855.01)
(-996.277 -278.022 489.532)
(-689.693 160.439 612.969)
(-580.858 -541.356 2341.91)
(-138.959 2061.95 1986.16)
(7.06707 10.0949 222.934)
(-54.303 541.938 318.396)
(67.3202 1458.53 1085.79)
(-102.832 -19.5553 60.8434)
(-463.217 272.257 158.135)
(-425.83 -1319.45 1014.39)
(-1152.68 -125.419 685.437)
(-534.426 -506.917 2402)
(-126.452 64.2163 65.7266)
(-595.883 -44.2774 331.42)
(26.4778 -156.848 2539.81)
(-387.492 -282.917 1755.59)
(14.3042 -70.5461 152.081)
(68.6455 49.0481 385.458)
(-555.736 1133.78 2396.28)
(1.94522 2.32764 380.297)
(-576.171 -61.1033 2459.09)
(80.3312 66.5823 292.805)
(-1177.21 -22.6699 1572.16)
(-574.23 164.577 137.622)
(-1316.06 -1604.72 1850.19)
(-1532.48 -443.852 1717.8)
(-1699.41 153.885 1466.73)
(10.2151 19.1666 279.692)
(-270.144 83.0064 83.5919)
(-142.268 33.3492 79.7767)
(-192.468 -24.5105 42.8436)
(-539.774 -25.6601 258.505)
(-1432.26 -84.9541 851.566)
(-45.457 642.676 343.681)
(-247.172 -890.504 2294.18)
(-1221.77 720.813 2107.94)
(-217.053 58.5579 50.4823)
(-170.272 -324.772 2299.98)
(-159.826 -28.3282 67.2447)
(28.9413 848.799 335.719)
(-1586.17 -799.987 1304.26)
(455.759 -121.903 108.293)
(-73.5516 -59.9146 57.5513)
(-397.474 -142.358 1379.12)
(-1596.11 -648.225 1606.51)
(586.062 259.967 2398.7)
(-668.817 39.7534 341.943)
(-96.2747 756.415 307.37)
(668.305 -686.237 2365.58)
(-134.17 59.2676 416.567)
(-204.134 338.15 553.066)
(-383.225 649.852 2174.95)
(-114.343 -300.864 2668.63)
(-18.6766 -170.497 37.8122)
(346.263 -761.577 359.309)
(-805.294 -60.1355 763.512)
(-1008.34 590.871 696.856)
(-1317.33 -317.849 2635.23)
(320.918 189.357 104.679)
(-570.831 1289.97 777.844)
(758.424 -765.871 2617.89)
(-456.237 699.701 2140.52)
(-748.083 -1558.49 2030.15)
(-948.324 -1350.5 1017.44)
(-46.1747 358.678 188.252)
(-1572.39 823.927 2249.43)
(-178.955 32.97 69.9529)
(-121.667 894.794 378.209)
(-1233.1 675.589 712.521)
(340.71 -123.07 121.312)
(-777.529 -53.8706 490.365)
(1.90708 107.618 80.2145)
(-1879.71 -359.274 1554.3)